 Gaussian 09, Revision D.01,
 Gaussian 09:  ES64L-G09RevD.01 24-Apr-2013

 -----------------------------
 # b3lyp 6-31G(2df,p) opt Freq
 -----------------------------

 -----
 titel
 -----
 Symbolic Z-matrix:
 Charge =  0 Multiplicity = 1

 SCF Done:  E(RB3LYP) =  -423.193337779     A.U. after   14 cycles
 Optimization completed.
    -- Stationary point found.
 Normal termination of Gaussian 09 at Mon Jan 27 18:30:27 2020.

 ----------------------------------------------------------------------
 #N Geom=AllCheck Guess=TCheck SCRF=Check GenChk RB3LYP/6-31G(2df,p) Fr
 eq
 ----------------------------------------------------------------------

 Structure from the checkpoint file:  "/scratch/puck/g09_32215d59-ed5a-4835-a09e-125544d23cdd/Gau-81807.chk"
 -----
 titel
 -----
 Charge =  0 Multiplicity = 1

                         Standard orientation:
 ---------------------------------------------------------------------
 Center     Atomic      Atomic             Coordinates (Angstroms)
 Number     Number       Type             X           Y           Z
 ---------------------------------------------------------------------
      1          6           0       -2.435553    0.027593   -0.000010
      2          6           0       -0.912149    0.060139   -0.000002
      3          6           0       -0.313771   -0.671403   -1.228945
      4          8           0        1.113490   -0.665638   -1.161527
      5          6           0        1.566162    0.016593    0.000001
      6          8           0        1.113480   -0.665600    1.161555
      7          6           0       -0.313779   -0.671305    1.228997
      8          6           0        1.024343    1.427035   -0.000031
      9          6           0       -0.307853    1.447798   -0.000046
     10          1           0       -2.812168   -1.000675   -0.000842
     11          1           0       -2.837509    0.531977    0.884964
     12          1           0       -2.837514    0.533407   -0.884162
     13          1           0       -0.655828   -1.715564   -1.240821
     14          1           0       -0.633666   -0.188901   -2.161891
     15          1           0        2.653060   -0.056177    0.000008
     16          1           0       -0.655870   -1.715453    1.241010
     17          1           0       -0.633650   -0.188675    2.161885
     18          1           0        1.677664    2.290873   -0.000072
     19          1           0       -0.924672    2.340379   -0.000081
 ---------------------------------------------------------------------

 SCF Done:  E(RB3LYP) =  -423.193337779     A.U. after    1 cycles

 The electronic state is 1-A.
 Alpha  occ. eigenvalues --  -19.13769 -19.13769 -10.27513 -10.22951 -10.22950
 Alpha  occ. eigenvalues --  -10.20677 -10.18824 -10.18776 -10.18228  -1.06861
 Alpha  occ. eigenvalues --   -0.99493  -0.83291  -0.77881  -0.70783  -0.67161
 Alpha  occ. eigenvalues --   -0.62727  -0.60569  -0.53221  -0.50358  -0.50182
 Alpha  occ. eigenvalues --   -0.47292  -0.43276  -0.43090  -0.41235  -0.40952
 Alpha  occ. eigenvalues --   -0.40610  -0.39097  -0.38804  -0.34377  -0.32505
 Alpha  occ. eigenvalues --   -0.31498  -0.27339  -0.25261  -0.23832
 Alpha virt. eigenvalues --    0.00589   0.08193   0.10135   0.12072   0.13315
 Alpha virt. eigenvalues --    0.13756   0.14690   0.15094   0.17280   0.17499
 Alpha virt. eigenvalues --    0.17842   0.19273   0.19846   0.20595   0.22533

 Mulliken charges:
               1
     1  C   -0.480549
     2  C    0.161934
     3  C   -0.069786
     4  O   -0.266750
     5  C    0.146732
     6  O   -0.266754
     7  C   -0.069787
     8  C   -0.083231
     9  C   -0.117469
    10  H    0.119984
    11  H    0.122944
    12  H    0.122943
    13  H    0.099213
    14  H    0.096306
    15  H    0.087559
    16  H    0.099212
    17  H    0.096302
    18  H    0.106864
    19  H    0.094335
 Sum of Mulliken charges =   0.00000

 Dipole moment (field-independent basis, Debye):
    X=             -1.9546    Y=              1.1804    Z=             -0.0001  Tot=              2.2834
 Quadrupole moment (field-independent basis, Debye-Ang):
   XX=            -51.1553   YY=            -52.2510   ZZ=            -56.1966
   XY=              3.0476   XZ=              0.0000   YZ=             -0.0001

  Exact polarizability:  86.619   3.575  72.078   0.000   0.000  64.086
 Approx polarizability: 130.728   1.980 106.641   0.000   0.000  97.434

                      1                      2                      3
                      A                      A                      A
 Frequencies --    175.7054               206.7899               272.2416
 Red. masses --      2.8393                 1.0230                 2.2755
 Frc consts  --      0.0516                 0.0258                 0.0994
 IR Inten    --      2.4849                 0.0565                 0.7969

                      4                      5                      6
                      A                      A                      A
 Frequencies --    278.5675               363.0788               389.1726
 Red. masses --      2.6947                 2.1022                 2.2794
 Frc consts  --      0.1232                 0.1633                 0.2034
 IR Inten    --      0.1108                 2.6878                 0.5688

                      7                      8                      9
                      A                      A                      A
 Frequencies --    443.2710               462.9967               551.7150
 Red. masses --      4.7043                 5.8818                 4.3739
 Frc consts  --      0.5446                 0.7429                 0.7844
 IR Inten    --      0.3152                 8.0383                 3.1297

                     10                     11                     12
                      A                      A                      A
 Frequencies --    632.4497               656.3699               719.4386
 Red. masses --      6.8207                 3.4369                 1.7168
 Frc consts  --      1.6074                 0.8724                 0.5236
 IR Inten    --      1.6050                 3.6752                11.2624

                     13                     14                     15
                      A                      A                      A
 Frequencies --    741.3274               859.5174               901.5296
 Red. masses --      5.3688                 3.6518                 2.4962
 Frc consts  --      1.7384                 1.5895                 1.1953
 IR Inten    --      1.7631                13.4412                42.4124

                     16                     17                     18
                      A                      A                      A
 Frequencies --    913.5848               941.5775               950.4816
 Red. masses --      2.1748                 2.1601                 1.3863
 Frc consts  --      1.0695                 1.1284                 0.7379
 IR Inten    --      0.5481                59.6299                 9.9604

                     19                     20                     21
                      A                      A                      A
 Frequencies --    985.1622               987.8829              1005.2369
 Red. masses --      1.9833                 2.3286                 3.7399
 Frc consts  --      1.1341                 1.3389                 2.2266
 IR Inten    --     31.1166                35.6186                 8.9815

                     22                     23                     24
                      A                      A                      A
 Frequencies --   1031.7451              1033.2374              1105.9868
 Red. masses --      1.6036                 3.2998                 2.4576
 Frc consts  --      1.0057                 2.0755                 1.7712
 IR Inten    --     11.3388                38.6899                67.7667

                     25                     26                     27
                      A                      A                      A
 Frequencies --   1151.2541              1196.6816              1197.7814
 Red. masses --      1.8709                 1.8299                 1.4049
 Frc consts  --      1.4610                 1.5439                 1.1876
 IR Inten    --     33.9371                 0.6124                 2.4059

                     28                     29                     30
                      A                      A                      A
 Frequencies --   1216.5106              1242.6425              1295.8080
 Red. masses --      3.4822                 1.4128                 1.4949
 Frc consts  --      3.0363                 1.2853                 1.4789
 IR Inten    --      0.8213                 0.1076                 0.5406

                     31                     32                     33
                      A                      A                      A
 Frequencies --   1329.7963              1342.0238              1382.9468
 Red. masses --      1.3196                 1.1679                 1.3051
 Frc consts  --      1.3749                 1.2393                 1.4707
 IR Inten    --      1.7165                 0.0224                 7.0398

                     34                     35                     36
                      A                      A                      A
 Frequencies --   1387.9486              1406.0633              1419.8206
 Red. masses --      1.7796                 1.4235                 1.2972
 Frc consts  --      2.0199                 1.6581                 1.5407
 IR Inten    --     17.2887                 0.8489                 2.8053

                     37                     38                     39
                      A                      A                      A
 Frequencies --   1494.0338              1497.0322              1509.4600
 Red. masses --      1.0524                 1.0576                 1.0773
 Frc consts  --      1.3841                 1.3965                 1.4462
 IR Inten    --      4.2568                 6.3392                 0.8866

                     40                     41                     42
                      A                      A                      A
 Frequencies --   1521.4928              1678.4194              2995.8942
 Red. masses --      1.0927                 6.4206                 1.0554
 Frc consts  --      1.4904                10.6568                 5.5809
 IR Inten    --      0.4098                 2.5500                54.2058

                     43                     44                     45
                      A                      A                      A
 Frequencies --   2999.3909              3030.9781              3036.2593
 Red. masses --      1.0559                 1.0355                 1.1092
 Frc consts  --      5.5970                 5.6047                 6.0247
 IR Inten    --     56.3891                32.5507                31.5963

                     46                     47                     48
                      A                      A                      A
 Frequencies --   3040.2716              3100.3337              3100.4067
 Red. masses --      1.1092                 1.1014                 1.1014
 Frc consts  --      6.0406                 6.2378                 6.2377
 IR Inten    --     41.7364                22.9449                21.1947

                     49                     50                     51
                      A                      A                      A
 Frequencies --   3130.3781              3176.1988              3209.9135
 Red. masses --      1.0909                 1.0877                 1.1020
 Frc consts  --      6.2984                 6.4650                 6.6901
 IR Inten    --     31.2968                 7.8048                13.9284

 - Thermochemistry -
 -------------------
 Temperature   298.150 Kelvin.  Pressure   1.00000 Atm.
 Atom     1 has atomic number  6 and mass  12.00000

 Molecular mass:   126.06808 amu.
 Principal axes and moments of inertia in atomic units:
                           1         2         3
     Eigenvalues --   665.692631055.589711057.76133
           X            0.99942   0.00000   0.03394
           Y           -0.03394   0.00009   0.99942
           Z            0.00000   1.00000  -0.00009
 This molecule is an asymmetric top.
 Rotational symmetry number  1.
 Warning -- assumption of classical behavior for rotation
           may cause significant error
 Rotational temperatures (Kelvin)      0.13011     0.08205     0.08188
 Rotational constants (GHZ):           2.71107     1.70970     1.70619
 Zero-point vibrational energy     422872.8 (Joules/Mol)
                                  101.06902 (Kcal/Mol)
 Warning -- explicit consideration of   9 degrees of freedom as
           vibrations may cause significant error
 Vibrational temperatures:    252.80   297.52   391.69   400.80   522.39
          (Kelvin)            559.93   637.77   666.15   793.79   909.95
                              944.37  1035.11  1066.60  1236.65  1297.10
                             1314.44  1354.72  1367.53  1417.43  1421.34
                             1446.31  1484.45  1486.60  1591.27  1656.40
                             1721.76  1723.34  1750.29  1787.88  1864.38
                             1913.28  1930.87  1989.75  1996.95  2023.01
                             2042.80  2149.58  2153.89  2171.77  2189.09
                             2414.87  4310.42  4315.45  4360.90  4368.49
                             4374.27  4460.68  4460.79  4503.91  4569.84
                             4618.34

 Zero-point correction=                           0.161064 (Hartree/Particle)
 Thermal correction to Energy=                    0.168433
 Thermal correction to Enthalpy=                  0.169377
 Thermal correction to Gibbs Free Energy=         0.129848
 Sum of electronic and zero-point Energies=           -423.032274
 Sum of electronic and thermal Energies=              -423.024905
 Sum of electronic and thermal Enthalpies=            -423.023961
 Sum of electronic and thermal Free Energies=         -423.063490

                     E (Thermal)             CV                S
                      KCal/Mol        Cal/Mol-Kelvin    Cal/Mol-Kelvin
 Total                  105.693             30.144             83.195
 Electronic               0.000              0.000              0.000
 Translational            0.889              2.981             40.409
 Rotational               0.889              2.981             28.099
 Vibrational            103.916             24.182             14.688
 Vibration     1          0.628              1.872              2.374
 Vibration     2          0.641              1.830              2.072
 Vibration     3          0.675              1.724              1.582
 Vibration     4          0.679              1.713              1.542
 Vibration     5          0.737              1.548              1.109
 Vibration     6          0.757              1.493              1.003
 Vibration     7          0.803              1.376              0.816
 Vibration     8          0.821              1.332              0.757
 Vibration     9          0.907              1.136              0.541

 Normal termination of Gaussian 09 at Mon Jan 27 19:25:06 2020.
