 Gaussian 09, Revision D.01,
 Gaussian 09:  ES64L-G09RevD.01 24-Apr-2013

 -----------------------------
 # b3lyp 6-31G(2df,p) opt Freq
 -----------------------------

 -----
 titel
 -----
 Symbolic Z-matrix:
 Charge =  0 Multiplicity = 1

 SCF Done:  E(RB3LYP) =  -423.127133771     A.U. after   14 cycles
 Optimization completed.
    -- Stationary point found.
 Normal termination of Gaussian 09 at Tue Jan 28 02:55:00 2020.

 ----------------------------------------------------------------------
 #N Geom=AllCheck Guess=TCheck SCRF=Check GenChk RB3LYP/6-31G(2df,p) Fr
 eq
 ----------------------------------------------------------------------

 Structure from the checkpoint file:  "/scratch/puck/g09_e5b640c3-ff39-456f-97b7-b4282a8a6928/Gau-40820.chk"
 -----
 titel
 -----
 Charge =  0 Multiplicity = 1

                         Standard orientation:
 ---------------------------------------------------------------------
 Center     Atomic      Atomic             Coordinates (Angstroms)
 Number     Number       Type             X           Y           Z
 ---------------------------------------------------------------------
      1          6           0        2.395151    0.183127    0.454563
      2          6           0        1.220948   -0.115494   -0.464948
      3          8           0        0.808099   -1.499898   -0.311995
      4          6           0       -0.547164   -1.389868    0.020946
      5          6           0       -1.237373   -0.244325   -0.770315
      6          8           0       -2.116371    0.046191    0.365214
      7          6           0       -0.805208   -0.190607    0.976751
      8          6           0       -0.081431    0.623368   -0.156493
      9          6           0       -0.147677    2.127829   -0.195426
     10          1           0        2.108499    0.076683    1.505586
     11          1           0        3.214728   -0.511977    0.252764
     12          1           0        2.764196    1.201468    0.295425
     13          1           0        1.519972    0.038442   -1.511580
     14          1           0       -1.027035   -2.354450    0.169656
     15          1           0       -1.665486   -0.222440   -1.772985
     16          1           0       -0.722614   -0.107868    2.060634
     17          1           0        0.531821    2.579273    0.535023
     18          1           0        0.124375    2.512314   -1.184914
     19          1           0       -1.165769    2.454032    0.034174
 ---------------------------------------------------------------------

 SCF Done:  E(RB3LYP) =  -423.127133771     A.U. after    1 cycles

 The electronic state is 1-A.
 Alpha  occ. eigenvalues --  -19.14328 -19.13671 -10.24200 -10.24158 -10.24020
 Alpha  occ. eigenvalues --  -10.23691 -10.20617 -10.18306 -10.18194  -1.07653
 Alpha  occ. eigenvalues --   -1.02909  -0.80512  -0.76574  -0.71795  -0.66156
 Alpha  occ. eigenvalues --   -0.65226  -0.57537  -0.53783  -0.52396  -0.48623
 Alpha  occ. eigenvalues --   -0.46554  -0.42946  -0.42385  -0.41745  -0.39824
 Alpha  occ. eigenvalues --   -0.38933  -0.37964  -0.36483  -0.35423  -0.33670
 Alpha  occ. eigenvalues --   -0.32364  -0.30441  -0.24722  -0.23551
 Alpha virt. eigenvalues --    0.07342   0.08744   0.11558   0.11763   0.12656
 Alpha virt. eigenvalues --    0.12979   0.13877   0.14960   0.15936   0.16125
 Alpha virt. eigenvalues --    0.16956   0.17440   0.19605   0.20175   0.20260

 Mulliken charges:
               1
     1  C   -0.403796
     2  C    0.068624
     3  O   -0.289545
     4  C    0.094515
     5  C   -0.029972
     6  O   -0.320011
     7  C   -0.025305
     8  C    0.305659
     9  C   -0.516060
    10  H    0.119449
    11  H    0.131105
    12  H    0.118923
    13  H    0.081191
    14  H    0.101651
    15  H    0.089888
    16  H    0.090704
    17  H    0.121997
    18  H    0.119027
    19  H    0.141957
 Sum of Mulliken charges =   0.00000

 Dipole moment (field-independent basis, Debye):
    X=              1.2956    Y=              1.0027    Z=             -0.2639  Tot=              1.6594
 Quadrupole moment (field-independent basis, Debye-Ang):
   XX=            -57.6593   YY=            -54.1016   ZZ=            -50.2620
   XY=              3.2449   XZ=              1.7395   YZ=             -0.9451

  Exact polarizability:  79.053   3.394  74.566   0.723  -1.098  68.353
 Approx polarizability: 113.291   2.221 107.415  -1.274  -0.764 108.717

                      1                      2                      3
                      A                      A                      A
 Frequencies --    136.2751               217.1969               231.3511
 Red. masses --      3.2683                 1.1984                 1.6815
 Frc consts  --      0.0358                 0.0333                 0.0530
 IR Inten    --      0.0429                 0.0508                 0.3869

                      4                      5                      6
                      A                      A                      A
 Frequencies --    248.2075               283.9016               322.9091
 Red. masses --      1.1181                 2.7650                 2.6320
 Frc consts  --      0.0406                 0.1313                 0.1617
 IR Inten    --      0.0679                 0.6937                 0.5971

                      7                      8                      9
                      A                      A                      A
 Frequencies --    443.3200               482.7622               509.2792
 Red. masses --      4.6926                 3.3649                 4.0711
 Frc consts  --      0.5434                 0.4621                 0.6221
 IR Inten    --      6.3963                 0.9401                10.3966

                     10                     11                     12
                      A                      A                      A
 Frequencies --    663.6729               677.1122               705.7729
 Red. masses --      4.0662                 3.6048                 4.9035
 Frc consts  --      1.0552                 0.9738                 1.4391
 IR Inten    --      1.8867                 0.7231                 2.5853

                     13                     14                     15
                      A                      A                      A
 Frequencies --    784.2070               811.4948               841.8466
 Red. masses --      3.0484                 3.1787                 2.2469
 Frc consts  --      1.1045                 1.2333                 0.9382
 IR Inten    --      0.7546                15.2435                13.1099

                     16                     17                     18
                      A                      A                      A
 Frequencies --    882.9843               887.8901               904.0210
 Red. masses --      2.3772                 3.5024                 2.0051
 Frc consts  --      1.0920                 1.6268                 0.9655
 IR Inten    --      5.5811                 4.8082                 3.0374

                     19                     20                     21
                      A                      A                      A
 Frequencies --    942.6122              1011.4824              1045.2174
 Red. masses --      2.4168                 1.3115                 1.7132
 Frc consts  --      1.2652                 0.7906                 1.1027
 IR Inten    --     14.2280                 2.8784                 7.1922

                     22                     23                     24
                      A                      A                      A
 Frequencies --   1073.6358              1083.0934              1105.1309
 Red. masses --      1.8013                 4.5635                 3.3936
 Frc consts  --      1.2234                 3.1541                 2.4420
 IR Inten    --     11.5011               114.9082                 1.3051

                     25                     26                     27
                      A                      A                      A
 Frequencies --   1119.7104              1139.7606              1160.9981
 Red. masses --      2.0672                 1.4453                 1.4888
 Frc consts  --      1.5270                 1.1062                 1.1823
 IR Inten    --     13.1332                 0.5502                 0.9459

                     28                     29                     30
                      A                      A                      A
 Frequencies --   1177.2780              1199.2522              1244.4594
 Red. masses --      1.7707                 2.0586                 2.1001
 Frc consts  --      1.4460                 1.7444                 1.9162
 IR Inten    --      8.4012                 4.4666                 6.1981

                     31                     32                     33
                      A                      A                      A
 Frequencies --   1253.2507              1291.6522              1325.2892
 Red. masses --      1.6879                 1.8776                 1.9976
 Frc consts  --      1.5620                 1.8457                 2.0672
 IR Inten    --      0.9556                19.3534                19.7718

                     34                     35                     36
                      A                      A                      A
 Frequencies --   1370.2431              1386.5551              1406.3054
 Red. masses --      1.6781                 1.6040                 1.3613
 Frc consts  --      1.8564                 1.8169                 1.5862
 IR Inten    --     10.3966                 5.4295                10.4268

                     37                     38                     39
                      A                      A                      A
 Frequencies --   1408.9868              1486.7337              1490.0442
 Red. masses --      1.3250                 1.0594                 1.0565
 Frc consts  --      1.5499                 1.3797                 1.3820
 IR Inten    --      7.1427                 4.4693                 2.2527

                     40                     41                     42
                      A                      A                      A
 Frequencies --   1495.5060              1500.1312              3003.1668
 Red. masses --      1.0503                 1.0482                 1.0843
 Frc consts  --      1.3840                 1.3898                 5.7618
 IR Inten    --      6.2600                 2.9183                37.1058

                     43                     44                     45
                      A                      A                      A
 Frequencies --   3032.1538              3038.6583              3092.9913
 Red. masses --      1.0363                 1.0352                 1.1002
 Frc consts  --      5.6134                 5.6317                 6.2015
 IR Inten    --     24.0762                15.4260                19.9257

                     46                     47                     48
                      A                      A                      A
 Frequencies --   3110.0030              3113.3799              3117.3008
 Red. masses --      1.1000                 1.0909                 1.0991
 Frc consts  --      6.2688                 6.2303                 6.2926
 IR Inten    --     14.5208                74.2032                13.7599

                     49                     50                     51
                      A                      A                      A
 Frequencies --   3118.1493              3119.3922              3161.9066
 Red. masses --      1.0965                 1.0993                 1.0937
 Frc consts  --      6.2815                 6.3024                 6.4426
 IR Inten    --      1.9354                20.4397                29.1598

 - Thermochemistry -
 -------------------
 Temperature   298.150 Kelvin.  Pressure   1.00000 Atm.
 Atom     1 has atomic number  6 and mass  12.00000

 Molecular mass:   126.06808 amu.
 Principal axes and moments of inertia in atomic units:
                           1         2         3
     Eigenvalues --   671.08686 970.615981342.35559
           X            0.99874   0.04596   0.02037
           Y           -0.04570   0.99887  -0.01294
           Z           -0.02094   0.01199   0.99971
 This molecule is an asymmetric top.
 Rotational symmetry number  1.
 Warning -- assumption of classical behavior for rotation
           may cause significant error
 Rotational temperatures (Kelvin)      0.12906     0.08924     0.06452
 Rotational constants (GHZ):           2.68928     1.85938     1.34446
 Zero-point vibrational energy     416651.2 (Joules/Mol)
                                   99.58202 (Kcal/Mol)
 Warning -- explicit consideration of   9 degrees of freedom as
           vibrations may cause significant error
 Vibrational temperatures:    196.07   312.50   332.86   357.11   408.47
          (Kelvin)            464.59   637.84   694.59   732.74   954.88
                              974.21  1015.45  1128.30  1167.56  1211.23
                             1270.42  1277.47  1300.68  1356.21  1455.30
                             1503.83  1544.72  1558.33  1590.03  1611.01
                             1639.86  1670.42  1693.84  1725.45  1790.50
                             1803.15  1858.40  1906.79  1971.47  1994.94
                             2023.36  2027.22  2139.08  2143.84  2151.70
                             2158.35  4320.88  4362.59  4371.95  4450.12
                             4474.60  4479.45  4485.09  4486.32  4488.10
                             4549.27

 Zero-point correction=                           0.158694 (Hartree/Particle)
 Thermal correction to Energy=                    0.166431
 Thermal correction to Enthalpy=                  0.167375
 Thermal correction to Gibbs Free Energy=         0.126959
 Sum of electronic and zero-point Energies=           -422.968440
 Sum of electronic and thermal Energies=              -422.960703
 Sum of electronic and thermal Enthalpies=            -422.959759
 Sum of electronic and thermal Free Energies=         -423.000175

                     E (Thermal)             CV                S
                      KCal/Mol        Cal/Mol-Kelvin    Cal/Mol-Kelvin
 Total                  104.437             31.062             85.063
 Electronic               0.000              0.000              0.000
 Translational            0.889              2.981             40.409
 Rotational               0.889              2.981             28.260
 Vibrational            102.660             25.101             16.394
 Vibration     1          0.614              1.917              2.856
 Vibration     2          0.646              1.815              1.982
 Vibration     3          0.653              1.793              1.868
 Vibration     4          0.662              1.766              1.743
 Vibration     5          0.682              1.704              1.510
 Vibration     6          0.708              1.630              1.295
 Vibration     7          0.803              1.376              0.816
 Vibration     8          0.839              1.288              0.703
 Vibration     9          0.864              1.229              0.635

 Optimization completed.
    -- Stationary point found.
 Normal termination of Gaussian 09 at Tue Jan 28 03:44:26 2020.
