 Gaussian 09, Revision D.01,
 Gaussian 09:  ES64L-G09RevD.01 24-Apr-2013

 -----------------------------
 # b3lyp 6-31G(2df,p) opt Freq
 -----------------------------

 -----
 titel
 -----
 Symbolic Z-matrix:
 Charge =  0 Multiplicity = 1

 SCF Done:  E(RB3LYP) =  -423.173197335     A.U. after   14 cycles
 Optimization completed.
    -- Stationary point found.
 Normal termination of Gaussian 09 at Tue Jan 28 02:52:19 2020.

 ----------------------------------------------------------------------
 #N Geom=AllCheck Guess=TCheck SCRF=Check GenChk RB3LYP/6-31G(2df,p) Fr
 eq
 ----------------------------------------------------------------------

 Structure from the checkpoint file:  "/scratch/puck/g09_afa4ba25-22d2-4e07-8e08-064aa862ad32/Gau-105052.chk"
 -----
 titel
 -----
 Charge =  0 Multiplicity = 1

                         Standard orientation:
 ---------------------------------------------------------------------
 Center     Atomic      Atomic             Coordinates (Angstroms)
 Number     Number       Type             X           Y           Z
 ---------------------------------------------------------------------
      1          6           0       -3.065275    0.624504   -0.626844
      2          6           0       -1.928938   -0.164200   -0.005405
      3          8           0       -2.109684   -1.224522    0.557011
      4          6           0       -0.566096    0.439759   -0.122855
      5          6           0        0.382643    0.148103    1.025493
      6          6           0        1.679983    0.941466    0.827889
      7          6           0        1.880373    0.219552   -0.552614
      8          8           0        3.038238   -0.571789   -0.662906
      9          6           0        0.573363   -0.551257   -0.301541
     10          1           0       -2.879948    0.776119   -1.696579
     11          1           0       -4.007649    0.094334   -0.486322
     12          1           0       -3.127923    1.620202   -0.172571
     13          1           0       -0.508824    1.403395   -0.624905
     14          1           0       -0.015199   -0.253536    1.948643
     15          1           0        1.599865    2.033420    0.830780
     16          1           0        2.473612    0.645888    1.519696
     17          1           0        1.885800    0.865872   -1.435784
     18          1           0        3.053552   -1.186273    0.079828
     19          1           0        0.361956   -1.576480   -0.580358
 ---------------------------------------------------------------------

 SCF Done:  E(RB3LYP) =  -423.173197335     A.U. after    1 cycles

 The electronic state is 1-A.
 Alpha  occ. eigenvalues --  -19.14288 -19.12371 -10.27007 -10.24192 -10.20576
 Alpha  occ. eigenvalues --  -10.20353 -10.20098 -10.19113 -10.18977  -1.03591
 Alpha  occ. eigenvalues --   -1.02754  -0.90207  -0.75990  -0.72477  -0.65873
 Alpha  occ. eigenvalues --   -0.62642  -0.56241  -0.54366  -0.50934  -0.47506
 Alpha  occ. eigenvalues --   -0.46478  -0.45232  -0.44014  -0.41752  -0.41390
 Alpha  occ. eigenvalues --   -0.39326  -0.38088  -0.37595  -0.35901  -0.32274
 Alpha  occ. eigenvalues --   -0.29874  -0.28123  -0.26172  -0.24484
 Alpha virt. eigenvalues --   -0.01403   0.07743   0.09642   0.10483   0.11340
 Alpha virt. eigenvalues --    0.11923   0.13494   0.13852   0.14843   0.16148
 Alpha virt. eigenvalues --    0.16651   0.18599   0.20815   0.21638   0.22190

 Mulliken charges:
               1
     1  C   -0.488155
     2  C    0.367352
     3  O   -0.323274
     4  C   -0.138049
     5  C   -0.041904
     6  C   -0.296286
     7  C    0.142378
     8  O   -0.433443
     9  C   -0.090068
    10  H    0.141117
    11  H    0.141904
    12  H    0.140402
    13  H    0.082137
    14  H    0.108404
    15  H    0.100398
    16  H    0.106900
    17  H    0.090545
    18  H    0.280659
    19  H    0.108982
 Sum of Mulliken charges =   0.00000

 Dipole moment (field-independent basis, Debye):
    X=             -0.0694    Y=              1.8814    Z=              0.0617  Tot=              1.8837
 Quadrupole moment (field-independent basis, Debye-Ang):
   XX=            -57.4251   YY=            -53.3127   ZZ=            -52.9626
   XY=             -6.0416   XZ=              7.2468   YZ=             -0.3001

  Exact polarizability:  96.042  -0.662  70.512   3.273  -2.806  65.972
 Approx polarizability: 119.657   0.002 113.850   0.612  -7.403 104.269

                      1                      2                      3
                      A                      A                      A
 Frequencies --     53.7665               122.7945               137.3172
 Red. masses --      3.6654                 2.4218                 1.2897
 Frc consts  --      0.0062                 0.0215                 0.0143
 IR Inten    --      3.5230                 4.7524                 2.7001

                      4                      5                      6
                      A                      A                      A
 Frequencies --    162.8858               196.3252               311.0540
 Red. masses --      4.5257                 2.8424                 3.2016
 Frc consts  --      0.0707                 0.0645                 0.1825
 IR Inten    --      2.1331                 0.9828                 9.9714

                      7                      8                      9
                      A                      A                      A
 Frequencies --    318.3912               363.6675               418.5641
 Red. masses --      1.8843                 1.7799                 3.1496
 Frc consts  --      0.1125                 0.1387                 0.3251
 IR Inten    --     22.1155                53.3519                17.8829

                     10                     11                     12
                      A                      A                      A
 Frequencies --    474.7190               592.8208               595.8045
 Red. masses --      2.6207                 2.9157                 2.9516
 Frc consts  --      0.3480                 0.6037                 0.6173
 IR Inten    --      1.4167                 9.2573                 4.9297

                     13                     14                     15
                      A                      A                      A
 Frequencies --    724.9932               822.2821               856.4482
 Red. masses --      2.6528                 2.2305                 2.0271
 Frc consts  --      0.8215                 0.8886                 0.8760
 IR Inten    --      4.6632                 7.5324                10.3210

                     16                     17                     18
                      A                      A                      A
 Frequencies --    865.1193               890.1900               933.6995
 Red. masses --      3.0042                 4.9912                 1.8661
 Frc consts  --      1.3247                 2.3304                 0.9585
 IR Inten    --      0.8062                10.9175                10.4241

                     19                     20                     21
                      A                      A                      A
 Frequencies --    955.4597               975.6651               998.2531
 Red. masses --      1.9938                 1.8498                 2.0190
 Frc consts  --      1.0724                 1.0375                 1.1854
 IR Inten    --     27.1840                39.2215                22.6741

                     22                     23                     24
                      A                      A                      A
 Frequencies --   1030.1543              1037.6600              1062.0066
 Red. masses --      1.7728                 1.7357                 1.4853
 Frc consts  --      1.1085                 1.1011                 0.9870
 IR Inten    --      4.4708                 4.5989                 0.6278

                     25                     26                     27
                      A                      A                      A
 Frequencies --   1070.1456              1124.5665              1140.8061
 Red. masses --      1.2732                 2.2695                 1.3016
 Frc consts  --      0.8591                 1.6910                 0.9981
 IR Inten    --      3.4653               107.9576                 5.8686

                     28                     29                     30
                      A                      A                      A
 Frequencies --   1179.8711              1204.6326              1223.9336
 Red. masses --      1.9823                 2.0049                 1.4961
 Frc consts  --      1.6259                 1.7142                 1.3205
 IR Inten    --     17.3129               100.4515                 4.5147

                     31                     32                     33
                      A                      A                      A
 Frequencies --   1232.0161              1276.1809              1290.4679
 Red. masses --      1.4610                 1.5106                 1.8158
 Frc consts  --      1.3066                 1.4495                 1.7816
 IR Inten    --     11.7117                21.4708                 3.4800

                     34                     35                     36
                      A                      A                      A
 Frequencies --   1326.3135              1376.4449              1405.8481
 Red. masses --      1.7117                 1.3452                 2.5558
 Frc consts  --      1.7740                 1.5016                 2.9761
 IR Inten    --      6.8817                11.0608               121.6985

                     37                     38                     39
                      A                      A                      A
 Frequencies --   1434.6457              1463.2023              1474.5341
 Red. masses --      1.2431                 1.0581                 1.0487
 Frc consts  --      1.5075                 1.3346                 1.3435
 IR Inten    --     79.6664                 9.4570                 6.8329

                     40                     41                     42
                      A                      A                      A
 Frequencies --   1483.0327              1790.4425              3033.3156
 Red. masses --      1.1080                10.3004                 1.0372
 Frc consts  --      1.4358                19.4546                 5.6228
 IR Inten    --      2.6390               132.1169                 2.2146

                     43                     44                     45
                      A                      A                      A
 Frequencies --   3045.0788              3063.6965              3092.8457
 Red. masses --      1.0610                 1.0858                 1.0981
 Frc consts  --      5.7962                 6.0045                 6.1890
 IR Inten    --     38.8545                38.3721                 7.5356

                     46                     47                     48
                      A                      A                      A
 Frequencies --   3103.6592              3124.4595              3154.0149
 Red. masses --      1.1056                 1.0888                 1.1015
 Frc consts  --      6.2746                 6.2625                 6.4562
 IR Inten    --     22.4326                17.8476                11.4604

                     49                     50                     51
                      A                      A                      A
 Frequencies --   3191.4706              3201.6389              3793.7816
 Red. masses --      1.0885                 1.0969                 1.0657
 Frc consts  --      6.5324                 6.6246                 9.0374
 IR Inten    --      9.0456                 3.3385                14.8911

 - Thermochemistry -
 -------------------
 Temperature   298.150 Kelvin.  Pressure   1.00000 Atm.
 Atom     1 has atomic number  6 and mass  12.00000

 Molecular mass:   126.06808 amu.
 Principal axes and moments of inertia in atomic units:
                           1         2         3
     Eigenvalues --   432.500142049.528282088.99350
           X            0.99968  -0.01157   0.02256
           Y            0.01340   0.99647  -0.08290
           Z           -0.02152   0.08318   0.99630
 This molecule is an asymmetric top.
 Rotational symmetry number  1.
 Rotational temperatures (Kelvin)      0.20026     0.04226     0.04146
 Rotational constants (GHZ):           4.17281     0.88056     0.86393
 Zero-point vibrational energy     413914.4 (Joules/Mol)
                                   98.92792 (Kcal/Mol)
 Warning -- explicit consideration of  12 degrees of freedom as
           vibrations may cause significant error
 Vibrational temperatures:     77.36   176.67   197.57   234.36   282.47
          (Kelvin)            447.54   458.09   523.24   602.22   683.01
                              852.94   857.23  1043.10  1183.08  1232.24
                             1244.71  1280.78  1343.38  1374.69  1403.76
                             1436.26  1482.16  1492.96  1527.99  1539.70
                             1618.00  1641.36  1697.57  1733.20  1760.97
                             1772.59  1836.14  1856.69  1908.27  1980.39
                             2022.70  2064.13  2105.22  2121.52  2133.75
                             2576.04  4364.26  4381.18  4407.97  4449.91
                             4465.47  4495.39  4537.92  4591.81  4606.44
                             5458.40

 Zero-point correction=                           0.157652 (Hartree/Particle)
 Thermal correction to Energy=                    0.166698
 Thermal correction to Enthalpy=                  0.167642
 Thermal correction to Gibbs Free Energy=         0.123400
 Sum of electronic and zero-point Energies=           -423.015546
 Sum of electronic and thermal Energies=              -423.006500
 Sum of electronic and thermal Enthalpies=            -423.005555
 Sum of electronic and thermal Free Energies=         -423.049797

                     E (Thermal)             CV                S
                      KCal/Mol        Cal/Mol-Kelvin    Cal/Mol-Kelvin
 Total                  104.604             33.509             93.114
 Electronic               0.000              0.000              0.000
 Translational            0.889              2.981             40.409
 Rotational               0.889              2.981             29.006
 Vibrational            102.827             27.547             23.700
 Vibration     1          0.596              1.976              4.674
 Vibration     2          0.610              1.930              3.056
 Vibration     3          0.614              1.916              2.841
 Vibration     4          0.623              1.888              2.516
 Vibration     5          0.636              1.845              2.167
 Vibration     6          0.700              1.653              1.357
 Vibration     7          0.705              1.638              1.318
 Vibration     8          0.737              1.547              1.106
 Vibration     9          0.781              1.430              0.897
 Vibration    10          0.831              1.306              0.724
 Vibration    11          0.950              1.047              0.462
 Vibration    12          0.954              1.041              0.457

 Normal termination of Gaussian 09 at Tue Jan 28 03:39:43 2020.
