 Gaussian 09, Revision D.01,
 Gaussian 09:  ES64L-G09RevD.01 24-Apr-2013

 -----------------------------
 # b3lyp 6-31G(2df,p) opt Freq
 -----------------------------

 -----
 titel
 -----
 Symbolic Z-matrix:
 Charge =  0 Multiplicity = 1

 SCF Done:  E(RB3LYP) =  -423.171054986     A.U. after   14 cycles
 Optimization completed.
    -- Stationary point found.
 Normal termination of Gaussian 09 at Mon Jan 27 18:01:27 2020.

 ----------------------------------------------------------------------
 #N Geom=AllCheck Guess=TCheck SCRF=Check GenChk RB3LYP/6-31G(2df,p) Fr
 eq
 ----------------------------------------------------------------------

 Structure from the checkpoint file:  "/scratch/puck/g09_20d8b1e4-9158-4712-8dc7-6bc6e8080723/Gau-16627.chk"
 -----
 titel
 -----
 Charge =  0 Multiplicity = 1

                         Standard orientation:
 ---------------------------------------------------------------------
 Center     Atomic      Atomic             Coordinates (Angstroms)
 Number     Number       Type             X           Y           Z
 ---------------------------------------------------------------------
      1          6           0        2.607234   -0.345026   -0.286891
      2          6           0        1.132373   -0.135948   -0.021679
      3          6           0        0.266693   -1.373677   -0.199728
      4          6           0       -1.226089   -1.132800   -0.266825
      5          8           0       -1.849737   -0.478656    0.840087
      6          6           0       -1.794125    0.214806   -0.408645
      7          6           0       -0.914705    1.442935   -0.486853
      8          6           0        0.541822    1.207958   -0.149102
      9          8           0        0.844867    0.661081    1.137744
     10          1           0        3.166166    0.569871   -0.075890
     11          1           0        3.003360   -1.141094    0.353708
     12          1           0        2.784774   -0.633656   -1.328560
     13          1           0        0.566723   -1.875632   -1.129093
     14          1           0        0.484909   -2.078738    0.613570
     15          1           0       -1.798788   -1.976363   -0.656472
     16          1           0       -2.763716    0.317854   -0.898916
     17          1           0       -0.970531    1.841344   -1.508820
     18          1           0       -1.317990    2.223653    0.171338
     19          1           0        1.204846    2.023878   -0.445170
 ---------------------------------------------------------------------

 SCF Done:  E(RB3LYP) =  -423.171054986     A.U. after    1 cycles

 The electronic state is 1-A.
 Alpha  occ. eigenvalues --  -19.14212 -19.13924 -10.24145 -10.23652 -10.23619
 Alpha  occ. eigenvalues --  -10.23418 -10.19396 -10.19303 -10.18228  -1.07155
 Alpha  occ. eigenvalues --   -1.05861  -0.78294  -0.77130  -0.72278  -0.65138
 Alpha  occ. eigenvalues --   -0.61933  -0.59709  -0.53043  -0.51625  -0.48211
 Alpha  occ. eigenvalues --   -0.46268  -0.44398  -0.43862  -0.41307  -0.40850
 Alpha  occ. eigenvalues --   -0.39819  -0.39229  -0.37523  -0.34043  -0.33724
 Alpha  occ. eigenvalues --   -0.30402  -0.28056  -0.27117  -0.24325
 Alpha virt. eigenvalues --    0.08692   0.09890   0.10384   0.11301   0.11623
 Alpha virt. eigenvalues --    0.12938   0.13908   0.14647   0.15175   0.16919
 Alpha virt. eigenvalues --    0.18083   0.18234   0.18656   0.20236   0.20641

 Mulliken charges:
               1
     1  C   -0.464160
     2  C    0.390123
     3  C   -0.310762
     4  C    0.051542
     5  O   -0.245709
     6  C    0.050355
     7  C   -0.278311
     8  C    0.000203
     9  O   -0.282856
    10  H    0.128635
    11  H    0.125986
    12  H    0.117583
    13  H    0.105808
    14  H    0.122898
    15  H    0.087071
    16  H    0.087279
    17  H    0.107108
    18  H    0.125877
    19  H    0.081331
 Sum of Mulliken charges =   0.00000

 Dipole moment (field-independent basis, Debye):
    X=              0.6648    Y=             -0.1761    Z=             -3.2454  Tot=              3.3175
 Quadrupole moment (field-independent basis, Debye-Ang):
   XX=            -52.6179   YY=            -48.8957   ZZ=            -56.4933
   XY=             -1.8292   XZ=              1.9976   YZ=             -0.8061

  Exact polarizability:  81.490  -5.091  80.865   1.593  -1.329  60.411
 Approx polarizability: 102.900  -8.827 117.648   0.048  -1.636 104.715

                      1                      2                      3
                      A                      A                      A
 Frequencies --    130.6368               185.0359               224.5132
 Red. masses --      2.9922                 1.3904                 1.8199
 Frc consts  --      0.0301                 0.0280                 0.0540
 IR Inten    --      0.2891                 0.4692                 0.1970

                      4                      5                      6
                      A                      A                      A
 Frequencies --    306.7719               324.2848               339.3497
 Red. masses --      2.6171                 2.4975                 3.0424
 Frc consts  --      0.1451                 0.1547                 0.2064
 IR Inten    --      1.5586                 1.3864                 2.3321

                      7                      8                      9
                      A                      A                      A
 Frequencies --    384.5539               434.7944               483.4712
 Red. masses --      2.5030                 5.0244                 4.3295
 Frc consts  --      0.2181                 0.5596                 0.5962
 IR Inten    --      5.0368                15.2089                 1.4946

                     10                     11                     12
                      A                      A                      A
 Frequencies --    592.7398               675.1586               729.1564
 Red. masses --      3.2618                 4.2121                 5.2149
 Frc consts  --      0.6752                 1.1312                 1.6336
 IR Inten    --      0.2857                 2.4007                15.3131

                     13                     14                     15
                      A                      A                      A
 Frequencies --    792.2174               818.0670               865.4588
 Red. masses --      3.8624                 2.8632                 3.0667
 Frc consts  --      1.4282                 1.1290                 1.3534
 IR Inten    --      4.8144                 3.0214                20.4698

                     16                     17                     18
                      A                      A                      A
 Frequencies --    875.3564               928.8432               948.4822
 Red. masses --      3.6229                 2.2699                 1.7696
 Frc consts  --      1.6356                 1.1538                 0.9380
 IR Inten    --     12.7877                13.5049                 0.2508

                     19                     20                     21
                      A                      A                      A
 Frequencies --    967.2947              1007.6583              1036.6864
 Red. masses --      2.9583                 1.7858                 1.9141
 Frc consts  --      1.6308                 1.0683                 1.2120
 IR Inten    --      0.6670                 4.5002                 9.5209

                     22                     23                     24
                      A                      A                      A
 Frequencies --   1063.1541              1066.6525              1123.1663
 Red. masses --      1.2377                 1.5331                 2.2293
 Frc consts  --      0.8242                 1.0277                 1.6570
 IR Inten    --      3.9553                 2.2928                10.7858

                     25                     26                     27
                      A                      A                      A
 Frequencies --   1143.5709              1161.0193              1224.9925
 Red. masses --      2.4057                 1.3113                 1.7807
 Frc consts  --      1.8536                 1.0414                 1.5743
 IR Inten    --     20.0255                 1.6528                 7.6933

                     28                     29                     30
                      A                      A                      A
 Frequencies --   1252.9560              1275.3813              1304.2479
 Red. masses --      1.2002                 1.2656                 1.2821
 Frc consts  --      1.1102                 1.2129                 1.2850
 IR Inten    --      0.5492                 1.8597                 5.7868

                     31                     32                     33
                      A                      A                      A
 Frequencies --   1327.3933              1373.2264              1388.0234
 Red. masses --      1.4158                 2.4867                 1.8080
 Frc consts  --      1.4697                 2.7628                 2.0523
 IR Inten    --      3.4230                13.3415                 2.2914

                     34                     35                     36
                      A                      A                      A
 Frequencies --   1395.6820              1413.4830              1459.0556
 Red. masses --      1.4314                 1.3165                 1.1775
 Frc consts  --      1.6428                 1.5497                 1.4769
 IR Inten    --      7.2294                 5.4422                 3.6870

                     37                     38                     39
                      A                      A                      A
 Frequencies --   1462.6678              1468.5634              1486.2183
 Red. masses --      1.1103                 1.6053                 1.3991
 Frc consts  --      1.3995                 2.0399                 1.8208
 IR Inten    --      4.9912                 5.1460                 3.8358

                     40                     41                     42
                      A                      A                      A
 Frequencies --   1492.2987              1520.2268              3017.1661
 Red. masses --      1.1406                 2.3875                 1.0591
 Frc consts  --      1.4966                 3.2509                 5.6803
 IR Inten    --      7.8238                14.6552                25.4202

                     43                     44                     45
                      A                      A                      A
 Frequencies --   3018.7565              3032.8816              3052.4386
 Red. masses --      1.0597                 1.0371                 1.1006
 Frc consts  --      5.6894                 5.6205                 6.0419
 IR Inten    --     14.5992                25.9750                 8.6290

                     46                     47                     48
                      A                      A                      A
 Frequencies --   3053.8468              3080.8703              3084.8712
 Red. masses --      1.1008                 1.0871                 1.0848
 Frc consts  --      6.0487                 6.0794                 6.0824
 IR Inten    --     17.8834                41.5655                31.2746

                     49                     50                     51
                      A                      A                      A
 Frequencies --   3094.8394              3097.7674              3123.6028
 Red. masses --      1.1003                 1.0913                 1.1009
 Frc consts  --      6.2095                 6.1703                 6.3286
 IR Inten    --     18.8157                66.6070                18.0362

 - Thermochemistry -
 -------------------
 Temperature   298.150 Kelvin.  Pressure   1.00000 Atm.
 Atom     1 has atomic number  6 and mass  12.00000

 Molecular mass:   126.06808 amu.
 Principal axes and moments of inertia in atomic units:
                           1         2         3
     Eigenvalues --   593.986011155.138801416.47168
           X            0.99948  -0.03199   0.00452
           Y            0.03205   0.99939  -0.01410
           Z           -0.00406   0.01424   0.99989
 This molecule is an asymmetric top.
 Rotational symmetry number  1.
 Warning -- assumption of classical behavior for rotation
           may cause significant error
 Rotational temperatures (Kelvin)      0.14582     0.07498     0.06115
 Rotational constants (GHZ):           3.03836     1.56236     1.27411
 Zero-point vibrational energy     419348.2 (Joules/Mol)
                                  100.22663 (Kcal/Mol)
 Warning -- explicit consideration of  10 degrees of freedom as
           vibrations may cause significant error
 Vibrational temperatures:    187.96   266.23   323.02   441.38   466.57
          (Kelvin)            488.25   553.29   625.57   695.61   852.82
                              971.40  1049.09  1139.82  1177.01  1245.20
                             1259.44  1336.40  1364.65  1391.72  1449.79
                             1491.56  1529.64  1534.67  1615.98  1645.34
                             1670.45  1762.49  1802.72  1834.99  1876.52
                             1909.82  1975.76  1997.05  2008.07  2033.68
                             2099.25  2104.45  2112.93  2138.33  2147.08
                             2187.26  4341.02  4343.31  4363.63  4391.77
                             4393.80  4432.68  4438.44  4452.78  4456.99
                             4494.16

 Zero-point correction=                           0.159721 (Hartree/Particle)
 Thermal correction to Energy=                    0.167465
 Thermal correction to Enthalpy=                  0.168409
 Thermal correction to Gibbs Free Energy=         0.127893
 Sum of electronic and zero-point Energies=           -423.011334
 Sum of electronic and thermal Energies=              -423.003590
 Sum of electronic and thermal Enthalpies=            -423.002646
 Sum of electronic and thermal Free Energies=         -423.043162

                     E (Thermal)             CV                S
                      KCal/Mol        Cal/Mol-Kelvin    Cal/Mol-Kelvin
 Total                  105.086             30.786             85.274
 Electronic               0.000              0.000              0.000
 Translational            0.889              2.981             40.409
 Rotational               0.889              2.981             28.365
 Vibrational            103.308             24.825             16.500
 Vibration     1          0.612              1.923              2.937
 Vibration     2          0.631              1.860              2.277
 Vibration     3          0.649              1.804              1.922
 Vibration     4          0.697              1.661              1.380
 Vibration     5          0.709              1.627              1.288
 Vibration     6          0.719              1.597              1.215
 Vibration     7          0.753              1.503              1.021
 Vibration     8          0.795              1.394              0.843
 Vibration     9          0.840              1.287              0.701
 Vibration    10          0.950              1.047              0.462

 Optimization completed.
    -- Stationary point found.
 Normal termination of Gaussian 09 at Mon Jan 27 19:58:01 2020.
