 Gaussian 09, Revision D.01,
 Gaussian 09:  ES64L-G09RevD.01 24-Apr-2013

 -----------------------------
 # b3lyp 6-31G(2df,p) opt Freq
 -----------------------------

 -----
 titel
 -----
 Symbolic Z-matrix:
 Charge =  0 Multiplicity = 1

 SCF Done:  E(RB3LYP) =  -423.135013511     A.U. after   14 cycles
 Optimization completed.
    -- Stationary point found.
 Normal termination of Gaussian 09 at Mon Jan 27 14:00:42 2020.

 ----------------------------------------------------------------------
 #N Geom=AllCheck Guess=TCheck SCRF=Check GenChk RB3LYP/6-31G(2df,p) Fr
 eq
 ----------------------------------------------------------------------

 Structure from the checkpoint file:  "/scratch/puck/g09_959a2a16-ac84-4b3c-8781-9f4b41ac1dc7/Gau-50332.chk"
 -----
 titel
 -----
 Charge =  0 Multiplicity = 1

                         Standard orientation:
 ---------------------------------------------------------------------
 Center     Atomic      Atomic             Coordinates (Angstroms)
 Number     Number       Type             X           Y           Z
 ---------------------------------------------------------------------
      1          6           0       -4.318462    0.376793    0.384751
      2          6           0       -2.935045    0.127643    0.010601
      3          6           0       -1.788954   -0.082699   -0.294174
      4          6           0       -0.429176   -0.325734   -0.688389
      5          8           0        0.242540   -1.466552   -0.104811
      6          6           0        0.704234   -0.165512    0.242038
      7          6           0        2.092469    0.213319   -0.239545
      8          6           0        3.173202   -0.520575    0.552446
      9          8           0        2.259245    1.625912   -0.203980
     10          1           0       -4.412069    1.286932    0.987370
     11          1           0       -4.953280    0.495154   -0.500062
     12          1           0       -4.721022   -0.454837    0.973378
     13          1           0       -0.217916   -0.197810   -1.749930
     14          1           0        0.469844    0.137012    1.266294
     15          1           0        2.171241   -0.060041   -1.297827
     16          1           0        3.116048   -0.263423    1.618079
     17          1           0        3.045828   -1.603189    0.461815
     18          1           0        4.165776   -0.246326    0.185525
     19          1           0        2.331667    1.892239    0.719317
 ---------------------------------------------------------------------

 SCF Done:  E(RB3LYP) =  -423.135013511     A.U. after    1 cycles

 The electronic state is 1-A.
 Alpha  occ. eigenvalues --  -19.15467 -19.14064 -10.25473 -10.23922 -10.23849
 Alpha  occ. eigenvalues --  -10.20787 -10.18349 -10.18075 -10.17297  -1.07422
 Alpha  occ. eigenvalues --   -1.02250  -0.78323  -0.76402  -0.72955  -0.67749
 Alpha  occ. eigenvalues --   -0.64732  -0.60258  -0.52922  -0.51015  -0.47051
 Alpha  occ. eigenvalues --   -0.45668  -0.44695  -0.43096  -0.43054  -0.41823
 Alpha  occ. eigenvalues --   -0.40445  -0.38722  -0.37206  -0.34222  -0.32314
 Alpha  occ. eigenvalues --   -0.29203  -0.26648  -0.25997  -0.24433
 Alpha virt. eigenvalues --    0.02844   0.04531   0.07073   0.10602   0.10817
 Alpha virt. eigenvalues --    0.11504   0.14204   0.14882   0.15901   0.16481
 Alpha virt. eigenvalues --    0.17270   0.18314   0.18499   0.21186   0.21592

 Mulliken charges:
               1
     1  C   -0.501696
     2  C    0.142906
     3  C    0.050588
     4  C   -0.175974
     5  O   -0.245986
     6  C    0.051943
     7  C    0.100192
     8  C   -0.411156
     9  O   -0.424582
    10  H    0.150876
    11  H    0.152719
    12  H    0.155144
    13  H    0.115040
    14  H    0.089397
    15  H    0.096952
    16  H    0.106992
    17  H    0.139896
    18  H    0.126191
    19  H    0.280558
 Sum of Mulliken charges =   0.00000

 Dipole moment (field-independent basis, Debye):
    X=             -0.6069    Y=              0.9511    Z=              1.2596  Tot=              1.6910
 Quadrupole moment (field-independent basis, Debye-Ang):
   XX=            -42.4589   YY=            -58.0995   ZZ=            -50.1643
   XY=             -2.4907   XZ=              1.6279   YZ=              3.3823

  Exact polarizability: 123.072  -6.000  62.256  -2.397   2.493  64.497
 Approx polarizability: 156.931 -10.924  97.250  -7.347   4.456  98.066

                      1                      2                      3
                      A                      A                      A
 Frequencies --     27.6943                57.8486                73.1478
 Red. masses --      1.0276                 3.8097                 3.9811
 Frc consts  --      0.0005                 0.0075                 0.0126
 IR Inten    --      0.0341                 2.5839                 0.8977

                      4                      5                      6
                      A                      A                      A
 Frequencies --     97.3434               178.8368               226.2173
 Red. masses --      3.6040                 4.6777                 1.3137
 Frc consts  --      0.0201                 0.0881                 0.0396
 IR Inten    --      0.3805                 2.8439                10.4030

                      7                      8                      9
                      A                      A                      A
 Frequencies --    257.8518               273.5465               289.0851
 Red. masses --      1.5177                 1.4099                 2.9427
 Frc consts  --      0.0595                 0.0622                 0.1449
 IR Inten    --     29.6458                75.8212                 2.7774

                     10                     11                     12
                      A                      A                      A
 Frequencies --    333.7938               367.4801               452.5979
 Red. masses --      4.2260                 3.8265                 4.9929
 Frc consts  --      0.2774                 0.3045                 0.6026
 IR Inten    --      6.4716                12.0044                 8.8835

                     13                     14                     15
                      A                      A                      A
 Frequencies --    483.4244               514.2961               545.1214
 Red. masses --      4.0646                 3.6158                 5.9698
 Frc consts  --      0.5597                 0.5635                 1.0452
 IR Inten    --      2.4994                 2.5515                11.3269

                     16                     17                     18
                      A                      A                      A
 Frequencies --    793.2192               841.0893               878.6217
 Red. masses --      5.0574                 5.1290                 2.3700
 Frc consts  --      1.8748                 2.1378                 1.0780
 IR Inten    --      8.8001                27.8039                10.3820

                     19                     20                     21
                      A                      A                      A
 Frequencies --    920.0643               957.3821              1049.6496
 Red. masses --      3.4204                 1.9709                 1.4315
 Frc consts  --      1.7059                 1.0644                 0.9293
 IR Inten    --     22.5061                29.5112                16.1510

                     22                     23                     24
                      A                      A                      A
 Frequencies --   1051.9538              1056.1363              1094.1025
 Red. masses --      1.4321                 1.4752                 2.3428
 Frc consts  --      0.9337                 0.9695                 1.6524
 IR Inten    --      7.9091                16.5320                18.2672

                     25                     26                     27
                      A                      A                      A
 Frequencies --   1096.6848              1139.7496              1176.1081
 Red. masses --      1.5113                 1.6382                 2.7307
 Frc consts  --      1.0710                 1.2538                 2.2254
 IR Inten    --     55.4483                 1.5298                32.0041

                     28                     29                     30
                      A                      A                      A
 Frequencies --   1186.0677              1263.7532              1278.7267
 Red. masses --      3.2304                 1.3420                 1.4740
 Frc consts  --      2.6775                 1.2628                 1.4200
 IR Inten    --      0.5792                10.7678                 7.7924

                     31                     32                     33
                      A                      A                      A
 Frequencies --   1326.2156              1378.0830              1398.7229
 Red. masses --      1.3035                 1.3475                 1.2358
 Frc consts  --      1.3508                 1.5077                 1.4245
 IR Inten    --     14.8890                 9.3360                 6.8863

                     34                     35                     36
                      A                      A                      A
 Frequencies --   1408.8649              1413.6861              1472.2672
 Red. masses --      1.2464                 1.2468                 2.1024
 Frc consts  --      1.4576                 1.4681                 2.6850
 IR Inten    --     51.5330                 7.5612                11.0250

                     37                     38                     39
                      A                      A                      A
 Frequencies --   1475.5881              1477.2031              1492.1722
 Red. masses --      1.0420                 1.0398                 1.0512
 Frc consts  --      1.3368                 1.3369                 1.3790
 IR Inten    --      5.6070                 5.6778                10.3951

                     40                     41                     42
                      A                      A                      A
 Frequencies --   1496.5461              2372.0474              3024.2196
 Red. masses --      1.2147                11.8482                 1.0418
 Frc consts  --      1.6028                39.2779                 5.6137
 IR Inten    --      2.8353                13.6575                15.1430

                     43                     44                     45
                      A                      A                      A
 Frequencies --   3028.6704              3051.6369              3077.9355
 Red. masses --      1.0347                 1.0831                 1.0878
 Frc consts  --      5.5920                 5.9428                 6.0717
 IR Inten    --     28.3376                 8.1759                23.3818

                     46                     47                     48
                      A                      A                      A
 Frequencies --   3089.9610              3092.2741              3099.7251
 Red. masses --      1.1003                 1.1001                 1.0946
 Frc consts  --      6.1896                 6.1978                 6.1968
 IR Inten    --      9.0831                 8.2805                30.6001

                     49                     50                     51
                      A                      A                      A
 Frequencies --   3111.2578              3126.4017              3800.8605
 Red. masses --      1.0855                 1.1028                 1.0660
 Frc consts  --      6.1909                 6.3510                 9.0732
 IR Inten    --     23.7573                17.5347                15.9004

 - Thermochemistry -
 -------------------
 Temperature   298.150 Kelvin.  Pressure   1.00000 Atm.
 Atom     1 has atomic number  6 and mass  12.00000

 Molecular mass:   126.06808 amu.
 Principal axes and moments of inertia in atomic units:
                           1         2         3
     Eigenvalues --   424.287852749.818442986.16567
           X            0.99992  -0.01266   0.00060
           Y            0.01265   0.99972   0.02008
           Z           -0.00085  -0.02007   0.99980
 This molecule is an asymmetric top.
 Rotational symmetry number  1.
 Rotational temperatures (Kelvin)      0.20414     0.03150     0.02901
 Rotational constants (GHZ):           4.25358     0.65631     0.60437
 Zero-point vibrational energy     407782.6 (Joules/Mol)
                                   97.46239 (Kcal/Mol)
 Warning -- explicit consideration of  15 degrees of freedom as
           vibrations may cause significant error
 Vibrational temperatures:     39.85    83.23   105.24   140.06   257.31
          (Kelvin)            325.48   370.99   393.57   415.93   480.25
                              528.72   651.19   695.54   739.96   784.31
                             1141.26  1210.14  1264.14  1323.77  1377.46
                             1510.21  1513.52  1519.54  1574.17  1577.88
                             1639.84  1692.16  1706.48  1818.26  1839.80
                             1908.13  1982.75  2012.45  2027.04  2033.98
                             2118.26  2123.04  2125.36  2146.90  2153.19
                             3412.84  4351.17  4357.58  4390.62  4428.46
                             4445.76  4449.09  4459.81  4476.40  4498.19
                             5468.58

 Zero-point correction=                           0.155316 (Hartree/Particle)
 Thermal correction to Energy=                    0.166073
 Thermal correction to Enthalpy=                  0.167017
 Thermal correction to Gibbs Free Energy=         0.117788
 Sum of electronic and zero-point Energies=           -422.979697
 Sum of electronic and thermal Energies=              -422.968941
 Sum of electronic and thermal Enthalpies=            -422.967997
 Sum of electronic and thermal Free Energies=         -423.017225

                     E (Thermal)             CV                S
                      KCal/Mol        Cal/Mol-Kelvin    Cal/Mol-Kelvin
 Total                  104.212             37.015            103.610
 Electronic               0.000              0.000              0.000
 Translational            0.889              2.981             40.409
 Rotational               0.889              2.981             29.634
 Vibrational            102.435             31.053             33.567
 Vibration     1          0.593              1.984              5.988
 Vibration     2          0.596              1.974              4.529
 Vibration     3          0.599              1.967              4.067
 Vibration     4          0.603              1.951              3.507
 Vibration     5          0.629              1.868              2.341
 Vibration     6          0.650              1.801              1.909
 Vibration     7          0.667              1.749              1.676
 Vibration     8          0.676              1.722              1.574
 Vibration     9          0.686              1.694              1.479
 Vibration    10          0.715              1.608              1.242
 Vibration    11          0.740              1.539              1.090
 Vibration    12          0.811              1.355              0.788
 Vibration    13          0.840              1.287              0.701
 Vibration    14          0.869              1.218              0.623
 Vibration    15          0.900              1.150              0.554

 Optimization completed on the basis of negligible forces.
    -- Stationary point found.
 Normal termination of Gaussian 09 at Mon Jan 27 14:32:51 2020.
