 Gaussian 09, Revision D.01,
 Gaussian 09:  ES64L-G09RevD.01 24-Apr-2013

 -----------------------------
 # b3lyp 6-31G(2df,p) opt Freq
 -----------------------------

 -----
 titel
 -----
 Symbolic Z-matrix:
 Charge =  0 Multiplicity = 1

 SCF Done:  E(RB3LYP) =  -423.174135446     A.U. after   14 cycles
 Optimization completed.
    -- Stationary point found.
 Normal termination of Gaussian 09 at Mon Jan 27 23:06:39 2020.

 ----------------------------------------------------------------------
 #N Geom=AllCheck Guess=TCheck SCRF=Check GenChk RB3LYP/6-31G(2df,p) Fr
 eq
 ----------------------------------------------------------------------

 Structure from the checkpoint file:  "/scratch/puck/g09_18f1b7f2-3d10-42ae-bd51-86b2e068565f/Gau-79629.chk"
 -----
 titel
 -----
 Charge =  0 Multiplicity = 1

                         Standard orientation:
 ---------------------------------------------------------------------
 Center     Atomic      Atomic             Coordinates (Angstroms)
 Number     Number       Type             X           Y           Z
 ---------------------------------------------------------------------
      1          6           0       -2.531628   -1.126201   -0.081292
      2          6           0       -1.337072   -0.223972   -0.021628
      3          6           0       -1.329106    1.077413   -0.322433
      4          6           0       -0.033595    1.856994   -0.238533
      5          6           0        1.090445    0.899810    0.169585
      6          8           0        0.656510    0.125632    1.335180
      7          6           0        0.006797   -0.793620    0.394581
      8          6           0        1.092464   -0.416661   -0.648494
      9          8           0        2.288313   -1.144462   -0.546798
     10          1           0       -2.364133   -1.965935   -0.768442
     11          1           0       -2.744274   -1.566689    0.901289
     12          1           0       -3.423504   -0.589557   -0.415973
     13          1           0       -2.236255    1.601284   -0.612182
     14          1           0        0.207705    2.325940   -1.202438
     15          1           0       -0.116327    2.674785    0.490127
     16          1           0        2.054143    1.391232    0.332823
     17          1           0       -0.026125   -1.819251    0.771481
     18          1           0        0.810558   -0.391917   -1.702537
     19          1           0        2.529794   -1.151824    0.388085
 ---------------------------------------------------------------------

 SCF Done:  E(RB3LYP) =  -423.174135446     A.U. after    1 cycles

 The electronic state is 1-A.
 Alpha  occ. eigenvalues --  -19.13996 -19.13537 -10.23550 -10.23408 -10.23282
 Alpha  occ. eigenvalues --  -10.19046 -10.18883 -10.18573 -10.18145  -1.05439
 Alpha  occ. eigenvalues --   -1.00894  -0.81734  -0.76211  -0.71540  -0.68684
 Alpha  occ. eigenvalues --   -0.62110  -0.58750  -0.53928  -0.51470  -0.45679
 Alpha  occ. eigenvalues --   -0.44903  -0.44882  -0.43239  -0.41831  -0.40408
 Alpha  occ. eigenvalues --   -0.39818  -0.38330  -0.37471  -0.35460  -0.33734
 Alpha  occ. eigenvalues --   -0.30734  -0.27001  -0.24925  -0.23016
 Alpha virt. eigenvalues --    0.00884   0.09164   0.10250   0.10476   0.11258
 Alpha virt. eigenvalues --    0.12502   0.14464   0.16034   0.16344   0.16770
 Alpha virt. eigenvalues --    0.16882   0.17502   0.18599   0.21693   0.22666

 Mulliken charges:
               1
     1  C   -0.504021
     2  C    0.366350
     3  C   -0.177122
     4  C   -0.269040
     5  C    0.030965
     6  O   -0.317805
     7  C   -0.079410
     8  C    0.184436
     9  O   -0.457354
    10  H    0.127976
    11  H    0.130629
    12  H    0.124258
    13  H    0.087057
    14  H    0.109359
    15  H    0.116110
    16  H    0.076678
    17  H    0.072557
    18  H    0.090974
    19  H    0.287402
 Sum of Mulliken charges =   0.00000

 Dipole moment (field-independent basis, Debye):
    X=             -1.0639    Y=              0.4963    Z=             -0.4734  Tot=              1.2658
 Quadrupole moment (field-independent basis, Debye-Ang):
   XX=            -52.7793   YY=            -50.6414   ZZ=            -56.2217
   XY=              2.5941   XZ=              2.8132   YZ=             -2.8226

  Exact polarizability:  83.314   3.397  86.447   1.919  -4.489  59.489
 Approx polarizability: 109.290   2.429 133.611   2.618  -8.818  97.787

                      1                      2                      3
                      A                      A                      A
 Frequencies --    147.0429               182.4895               214.3482
 Red. masses --      3.3868                 1.3177                 2.3107
 Frc consts  --      0.0431                 0.0259                 0.0626
 IR Inten    --      1.2216                 1.8389                 5.7790

                      4                      5                      6
                      A                      A                      A
 Frequencies --    263.0377               303.6304               358.4931
 Red. masses --      2.8281                 1.9119                 3.0262
 Frc consts  --      0.1153                 0.1038                 0.2291
 IR Inten    --      0.3325                 1.8197                 0.6850

                      7                      8                      9
                      A                      A                      A
 Frequencies --    383.4268               463.7871               485.7881
 Red. masses --      4.0167                 1.1788                 4.7971
 Frc consts  --      0.3479                 0.1494                 0.6670
 IR Inten    --      7.8039                81.8415                 0.9067

                     10                     11                     12
                      A                      A                      A
 Frequencies --    492.0819               574.6031               685.8582
 Red. masses --      4.8883                 3.6516                 4.3567
 Frc consts  --      0.6974                 0.7104                 1.2075
 IR Inten    --      1.4713                 3.9208                 0.5991

                     13                     14                     15
                      A                      A                      A
 Frequencies --    806.3783               851.3662               867.3974
 Red. masses --      1.4804                 2.0179                 3.1246
 Frc consts  --      0.5671                 0.8618                 1.3851
 IR Inten    --      0.8320                29.4858                16.0438

                     16                     17                     18
                      A                      A                      A
 Frequencies --    906.0549               921.4243               933.7676
 Red. masses --      3.0390                 2.8027                 4.2256
 Frc consts  --      1.4699                 1.4020                 2.1708
 IR Inten    --      8.8969                17.4916                45.4560

                     19                     20                     21
                      A                      A                      A
 Frequencies --    938.2698               988.3510              1003.6949
 Red. masses --      3.1608                 1.7855                 1.8417
 Frc consts  --      1.6395                 1.0276                 1.0931
 IR Inten    --     23.7696                 2.7260                 5.8201

                     22                     23                     24
                      A                      A                      A
 Frequencies --   1057.8107              1066.3298              1072.4867
 Red. masses --      1.8593                 1.5771                 2.6432
 Frc consts  --      1.2258                 1.0566                 1.7913
 IR Inten    --      8.8448                 6.6311                 6.0689

                     25                     26                     27
                      A                      A                      A
 Frequencies --   1106.6786              1157.5820              1176.9984
 Red. masses --      2.8297                 1.1981                 1.8836
 Frc consts  --      2.0419                 0.9459                 1.5374
 IR Inten    --     94.1313                 6.6775                22.8627

                     28                     29                     30
                      A                      A                      A
 Frequencies --   1210.1952              1225.3983              1262.8807
 Red. masses --      1.5355                 1.4663                 1.5875
 Frc consts  --      1.3250                 1.2973                 1.4917
 IR Inten    --     17.4656                 0.4062                 1.8720

                     31                     32                     33
                      A                      A                      A
 Frequencies --   1274.9197              1325.5252              1343.2076
 Red. masses --      1.3247                 1.5616                 1.5436
 Frc consts  --      1.2686                 1.6166                 1.6409
 IR Inten    --      3.7638                 0.4918                 5.7507

                     34                     35                     36
                      A                      A                      A
 Frequencies --   1359.6117              1365.8658              1415.2351
 Red. masses --      1.9977                 1.4645                 1.2782
 Frc consts  --      2.1757                 1.6097                 1.5083
 IR Inten    --      5.1576                 7.0650                 1.0533

                     37                     38                     39
                      A                      A                      A
 Frequencies --   1434.3910              1471.7766              1478.0422
 Red. masses --      1.3278                 1.0961                 1.0447
 Frc consts  --      1.6096                 1.3989                 1.3447
 IR Inten    --     78.5750                 4.3255                 6.0799

                     40                     41                     42
                      A                      A                      A
 Frequencies --   1489.3841              1727.8674              3009.9519
 Red. masses --      1.0567                 6.8142                 1.0593
 Frc consts  --      1.3810                11.9863                 5.6542
 IR Inten    --      6.6703                 0.2562                35.8984

                     43                     44                     45
                      A                      A                      A
 Frequencies --   3014.3928              3037.8363              3060.4120
 Red. masses --      1.0381                 1.1017                 1.0985
 Frc consts  --      5.5578                 5.9902                 6.0622
 IR Inten    --     26.1563                19.3465                17.5701

                     46                     47                     48
                      A                      A                      A
 Frequencies --   3071.7433              3082.2063              3104.0617
 Red. masses --      1.0878                 1.0887                 1.0889
 Frc consts  --      6.0477                 6.0938                 6.1814
 IR Inten    --     60.6166                34.8089                26.0943

                     49                     50                     51
                      A                      A                      A
 Frequencies --   3110.6030              3160.4688              3778.6830
 Red. masses --      1.0990                 1.0911                 1.0650
 Frc consts  --      6.2653                 6.4212                 8.9593
 IR Inten    --     20.3956                20.7423                23.6140

 - Thermochemistry -
 -------------------
 Temperature   298.150 Kelvin.  Pressure   1.00000 Atm.
 Atom     1 has atomic number  6 and mass  12.00000

 Molecular mass:   126.06808 amu.
 Principal axes and moments of inertia in atomic units:
                           1         2         3
     Eigenvalues --   678.658271179.779771502.10622
           X            0.99864   0.05139   0.00840
           Y           -0.05112   0.99823  -0.03050
           Z           -0.00995   0.03003   0.99950
 This molecule is an asymmetric top.
 Rotational symmetry number  1.
 Warning -- assumption of classical behavior for rotation
           may cause significant error
 Rotational temperatures (Kelvin)      0.12763     0.07342     0.05766
 Rotational constants (GHZ):           2.65928     1.52973     1.20147
 Zero-point vibrational energy     420031.8 (Joules/Mol)
                                  100.39001 (Kcal/Mol)
 Warning -- explicit consideration of  11 degrees of freedom as
           vibrations may cause significant error
 Vibrational temperatures:    211.56   262.56   308.40   378.45   436.86
          (Kelvin)            515.79   551.66   667.29   698.94   708.00
                              826.72   986.80  1160.20  1224.92  1247.99
                             1303.61  1325.72  1343.48  1349.96  1422.01
                             1444.09  1521.95  1534.21  1543.07  1592.26
                             1665.50  1693.44  1741.20  1763.07  1817.00
                             1834.32  1907.13  1932.57  1956.18  1965.17
                             2036.21  2063.77  2117.56  2126.57  2142.89
                             2486.01  4330.64  4337.03  4370.76  4403.24
                             4419.55  4434.60  4466.05  4475.46  4547.20
                             5436.68

 Zero-point correction=                           0.159982 (Hartree/Particle)
 Thermal correction to Energy=                    0.167909
 Thermal correction to Enthalpy=                  0.168853
 Thermal correction to Gibbs Free Energy=         0.127970
 Sum of electronic and zero-point Energies=           -423.014154
 Sum of electronic and thermal Energies=              -423.006226
 Sum of electronic and thermal Enthalpies=            -423.005282
 Sum of electronic and thermal Free Energies=         -423.046165

                     E (Thermal)             CV                S
                      KCal/Mol        Cal/Mol-Kelvin    Cal/Mol-Kelvin
 Total                  105.365             31.583             86.046
 Electronic               0.000              0.000              0.000
 Translational            0.889              2.981             40.409
 Rotational               0.889              2.981             28.577
 Vibrational            103.587             25.621             17.060
 Vibration     1          0.617              1.906              2.710
 Vibration     2          0.630              1.864              2.303
 Vibration     3          0.644              1.819              2.006
 Vibration     4          0.670              1.741              1.642
 Vibration     5          0.695              1.667              1.397
 Vibration     6          0.733              1.558              1.129
 Vibration     7          0.753              1.506              1.026
 Vibration     8          0.821              1.330              0.755
 Vibration     9          0.842              1.282              0.695
 Vibration    10          0.848              1.268              0.678
 Vibration    11          0.931              1.086              0.495

 Optimization completed.
    -- Stationary point found.
 Normal termination of Gaussian 09 at Mon Jan 27 23:51:18 2020.
