 Gaussian 09, Revision D.01,
 Gaussian 09:  ES64L-G09RevD.01 24-Apr-2013

 -----------------------------
 # b3lyp 6-31G(2df,p) opt Freq
 -----------------------------

 -----
 titel
 -----
 Symbolic Z-matrix:
 Charge =  0 Multiplicity = 1

 SCF Done:  E(RB3LYP) =  -423.216635782     A.U. after   14 cycles
 Optimization completed.
    -- Stationary point found.
 Normal termination of Gaussian 09 at Tue Jan 28 00:05:14 2020.

 ----------------------------------------------------------------------
 #N Geom=AllCheck Guess=TCheck SCRF=Check GenChk RB3LYP/6-31G(2df,p) Fr
 eq
 ----------------------------------------------------------------------

 Structure from the checkpoint file:  "/scratch/puck/g09_56a6292d-8e7a-4350-9af4-d113cb74c1c1/Gau-82508.chk"
 -----
 titel
 -----
 Charge =  0 Multiplicity = 1

                         Standard orientation:
 ---------------------------------------------------------------------
 Center     Atomic      Atomic             Coordinates (Angstroms)
 Number     Number       Type             X           Y           Z
 ---------------------------------------------------------------------
      1          6           0       -2.319296   -0.920679   -0.328759
      2          6           0       -0.856026   -0.600514   -0.617898
      3          6           0       -0.469536    0.902064   -0.764348
      4          6           0       -0.669097    1.381975    0.679931
      5          8           0       -0.232415    0.261550    1.476095
      6          6           0        0.114843   -0.796542    0.557026
      7          6           0        1.449986   -0.352062   -0.064880
      8          8           0        2.550240   -0.789629    0.133626
      9          6           0        1.053466    0.811317   -1.000320
     10          1           0       -2.646675   -0.493254    0.622082
     11          1           0       -2.968052   -0.532356   -1.121089
     12          1           0       -2.472987   -2.002929   -0.274572
     13          1           0       -0.517284   -1.162749   -1.496445
     14          1           0       -1.024949    1.470316   -1.511465
     15          1           0       -0.059197    2.259991    0.921821
     16          1           0       -1.715130    1.612611    0.914329
     17          1           0        0.131573   -1.743694    1.093239
     18          1           0        1.606046    1.723488   -0.757034
     19          1           0        1.298014    0.539853   -2.033134
 ---------------------------------------------------------------------

 SCF Done:  E(RB3LYP) =  -423.216635782     A.U. after    1 cycles

 The electronic state is 1-A.
 Alpha  occ. eigenvalues --  -19.15039 -19.13275 -10.26615 -10.23636 -10.23519
 Alpha  occ. eigenvalues --  -10.20564 -10.20385 -10.19589 -10.18633  -1.05255
 Alpha  occ. eigenvalues --   -1.03471  -0.84345  -0.76120  -0.74279  -0.66935
 Alpha  occ. eigenvalues --   -0.61327  -0.58201  -0.54290  -0.51353  -0.48746
 Alpha  occ. eigenvalues --   -0.46727  -0.43783  -0.42627  -0.40945  -0.40743
 Alpha  occ. eigenvalues --   -0.40274  -0.38761  -0.36905  -0.36538  -0.35100
 Alpha  occ. eigenvalues --   -0.33598  -0.31284  -0.27957  -0.22719
 Alpha virt. eigenvalues --   -0.01862   0.07578   0.11120   0.12012   0.12346
 Alpha virt. eigenvalues --    0.12827   0.13853   0.14491   0.15621   0.15946
 Alpha virt. eigenvalues --    0.17822   0.18076   0.19104   0.20353   0.21405

 Mulliken charges:
               1
     1  C   -0.432882
     2  C    0.005341
     3  C   -0.063971
     4  C   -0.078737
     5  O   -0.281567
     6  C   -0.010677
     7  C    0.440067
     8  O   -0.325535
     9  C   -0.345202
    10  H    0.138363
    11  H    0.117312
    12  H    0.123267
    13  H    0.082328
    14  H    0.075430
    15  H    0.106580
    16  H    0.102711
    17  H    0.089275
    18  H    0.129022
    19  H    0.128872
 Sum of Mulliken charges =   0.00000

 Dipole moment (field-independent basis, Debye):
    X=             -2.8456    Y=              1.0828    Z=             -2.0353  Tot=              3.6623
 Quadrupole moment (field-independent basis, Debye-Ang):
   XX=            -60.4794   YY=            -50.1634   ZZ=            -54.5683
   XY=              3.0881   XZ=             -0.8174   YZ=             -0.1448

  Exact polarizability:  83.583  -0.885  73.929  -0.492  -1.514  65.879
 Approx polarizability: 118.387  -7.313 109.581   0.562  -1.913 103.494

                      1                      2                      3
                      A                      A                      A
 Frequencies --    117.2816               175.8699               237.8055
 Red. masses --      4.8871                 1.1693                 2.6074
 Frc consts  --      0.0396                 0.0213                 0.0869
 IR Inten    --      2.4021                 0.1408                 3.7728

                      4                      5                      6
                      A                      A                      A
 Frequencies --    253.7034               269.1162               385.4544
 Red. masses --      2.8684                 3.1737                 1.8946
 Frc consts  --      0.1088                 0.1354                 0.1658
 IR Inten    --      6.4786                 1.0176                 0.9287

                      7                      8                      9
                      A                      A                      A
 Frequencies --    440.0869               524.5301               563.5478
 Red. masses --      4.4342                 3.8449                 3.9251
 Frc consts  --      0.5060                 0.6233                 0.7344
 IR Inten    --      4.8254                 6.4843                 1.0280

                     10                     11                     12
                      A                      A                      A
 Frequencies --    588.7613               711.2366               746.8266
 Red. masses --      2.8187                 3.9083                 2.7295
 Frc consts  --      0.5757                 1.1648                 0.8970
 IR Inten    --      2.1078                 0.2094                 1.0279

                     13                     14                     15
                      A                      A                      A
 Frequencies --    807.2905               865.7558               876.9196
 Red. masses --      3.0750                 2.2959                 3.2242
 Frc consts  --      1.1807                 1.0139                 1.4608
 IR Inten    --      6.5189                 1.7461                22.6995

                     16                     17                     18
                      A                      A                      A
 Frequencies --    905.1870               933.3635               951.6904
 Red. masses --      5.0793                 1.9260                 1.9246
 Frc consts  --      2.4521                 0.9886                 1.0270
 IR Inten    --     10.3644                 2.0216                 8.7038

                     19                     20                     21
                      A                      A                      A
 Frequencies --    978.3193              1015.8374              1053.1384
 Red. masses --      1.8008                 2.4440                 1.6288
 Frc consts  --      1.0155                 1.4859                 1.0644
 IR Inten    --     12.5372                32.3651                 4.0454

                     22                     23                     24
                      A                      A                      A
 Frequencies --   1064.7894              1081.6482              1094.1052
 Red. masses --      2.7704                 1.9391                 1.5082
 Frc consts  --      1.8506                 1.3367                 1.0637
 IR Inten    --     19.0177                 9.4860                 4.0512

                     25                     26                     27
                      A                      A                      A
 Frequencies --   1142.5938              1168.2926              1181.3560
 Red. masses --      1.3124                 2.4852                 1.4251
 Frc consts  --      1.0095                 1.9986                 1.1718
 IR Inten    --      4.4392                22.3834                 5.0144

                     28                     29                     30
                      A                      A                      A
 Frequencies --   1220.2333              1241.8241              1255.3640
 Red. masses --      1.5089                 1.5808                 1.8952
 Frc consts  --      1.3237                 1.4363                 1.7597
 IR Inten    --      2.4718                 0.4290                 2.3146

                     31                     32                     33
                      A                      A                      A
 Frequencies --   1290.3808              1301.8448              1325.4389
 Red. masses --      1.3662                 1.3640                 1.6881
 Frc consts  --      1.3403                 1.3621                 1.7473
 IR Inten    --      3.0619                 0.5737                 3.6251

                     34                     35                     36
                      A                      A                      A
 Frequencies --   1372.7252              1389.8860              1410.2948
 Red. masses --      1.3511                 1.5445                 1.2592
 Frc consts  --      1.5001                 1.7579                 1.4756
 IR Inten    --      0.4135                 0.6563                 3.1116

                     37                     38                     39
                      A                      A                      A
 Frequencies --   1449.3140              1493.8155              1501.6009
 Red. masses --      1.0969                 1.0455                 1.0537
 Frc consts  --      1.3575                 1.3746                 1.3998
 IR Inten    --      8.8379                 3.6395                 3.8015

                     40                     41                     42
                      A                      A                      A
 Frequencies --   1534.3203              1866.1381              3024.3642
 Red. masses --      1.0840                12.5282                 1.0567
 Frc consts  --      1.5036                25.7055                 5.6945
 IR Inten    --      1.5641               244.3428                61.5831

                     43                     44                     45
                      A                      A                      A
 Frequencies --   3037.0546              3041.2083              3051.7621
 Red. masses --      1.0710                 1.0488                 1.0616
 Frc consts  --      5.8202                 5.7152                 5.8252
 IR Inten    --     17.2507                20.5107                11.1055

                     46                     47                     48
                      A                      A                      A
 Frequencies --   3061.8637              3099.9731              3101.5007
 Red. masses --      1.1093                 1.1025                 1.1010
 Frc consts  --      6.1274                 6.2426                 6.2400
 IR Inten    --     39.2047                 9.2230                16.7810

                     49                     50                     51
                      A                      A                      A
 Frequencies --   3109.7333              3125.7853              3145.4119
 Red. masses --      1.0887                 1.0996                 1.0908
 Frc consts  --      6.2031                 6.3302                 6.3585
 IR Inten    --     31.0444                19.2026                16.3375

 - Thermochemistry -
 -------------------
 Temperature   298.150 Kelvin.  Pressure   1.00000 Atm.
 Atom     1 has atomic number  6 and mass  12.00000

 Molecular mass:   126.06808 amu.
 Principal axes and moments of inertia in atomic units:
                           1         2         3
     Eigenvalues --   643.983471209.230581259.16775
           X            0.99899   0.04477  -0.00371
           Y           -0.04487   0.99847  -0.03235
           Z            0.00225   0.03248   0.99947
 This molecule is an asymmetric top.
 Rotational symmetry number  1.
 Warning -- assumption of classical behavior for rotation
           may cause significant error
 Rotational temperatures (Kelvin)      0.13450     0.07163     0.06879
 Rotational constants (GHZ):           2.80247     1.49247     1.43328
 Zero-point vibrational energy     422200.1 (Joules/Mol)
                                  100.90825 (Kcal/Mol)
 Warning -- explicit consideration of  10 degrees of freedom as
           vibrations may cause significant error
 Vibrational temperatures:    168.74   253.04   342.15   365.02   387.20
          (Kelvin)            554.58   633.19   754.68   810.82   847.10
                             1023.31  1074.52  1161.51  1245.63  1261.69
                             1302.36  1342.90  1369.27  1407.58  1461.56
                             1515.23  1531.99  1556.25  1574.17  1643.94
                             1680.91  1699.71  1755.64  1786.71  1806.19
                             1856.57  1873.06  1907.01  1975.04  1999.73
                             2029.10  2085.24  2149.26  2160.47  2207.54
                             2684.95  4351.38  4369.64  4375.61  4390.80
                             4405.33  4460.16  4462.36  4474.21  4497.30
                             4525.54

 Zero-point correction=                           0.160808 (Hartree/Particle)
 Thermal correction to Energy=                    0.168446
 Thermal correction to Enthalpy=                  0.169390
 Thermal correction to Gibbs Free Energy=         0.128911
 Sum of electronic and zero-point Energies=           -423.055828
 Sum of electronic and thermal Energies=              -423.048189
 Sum of electronic and thermal Enthalpies=            -423.047245
 Sum of electronic and thermal Free Energies=         -423.087724

                     E (Thermal)             CV                S
                      KCal/Mol        Cal/Mol-Kelvin    Cal/Mol-Kelvin
 Total                  105.702             30.236             85.195
 Electronic               0.000              0.000              0.000
 Translational            0.889              2.981             40.409
 Rotational               0.889              2.981             28.374
 Vibrational            103.924             24.275             16.413
 Vibration     1          0.608              1.935              3.145
 Vibration     2          0.628              1.872              2.372
 Vibration     3          0.656              1.783              1.819
 Vibration     4          0.665              1.757              1.705
 Vibration     5          0.674              1.730              1.602
 Vibration     6          0.754              1.501              1.018
 Vibration     7          0.800              1.383              0.826
 Vibration     8          0.879              1.196              0.600
 Vibration     9          0.919              1.110              0.517
 Vibration    10          0.946              1.056              0.469

 Normal termination of Gaussian 09 at Tue Jan 28 00:49:14 2020.
