 Gaussian 09, Revision D.01,
 Gaussian 09:  ES64L-G09RevD.01 24-Apr-2013

 -----------------------------
 # b3lyp 6-31G(2df,p) opt Freq
 -----------------------------

 -----
 titel
 -----
 Symbolic Z-matrix:
 Charge =  0 Multiplicity = 1

 SCF Done:  E(RB3LYP) =  -423.172021829     A.U. after   14 cycles
 SCF Done:  E(RB3LYP) =  -423.172022100     A.U. after    7 cycles
 SCF Done:  E(RB3LYP) =  -423.172022181     A.U. after    7 cycles
 SCF Done:  E(RB3LYP) =  -423.172022032     A.U. after    6 cycles
 Optimization completed.
    -- Stationary point found.
 Normal termination of Gaussian 09 at Mon Jan 27 19:06:52 2020.

 ----------------------------------------------------------------------
 #N Geom=AllCheck Guess=TCheck SCRF=Check GenChk RB3LYP/6-31G(2df,p) Fr
 eq
 ----------------------------------------------------------------------

 Structure from the checkpoint file:  "/scratch/puck/g09_af80bf87-07eb-48c7-8e66-e33d9e40761f/Gau-54755.chk"
 -----
 titel
 -----
 Charge =  0 Multiplicity = 1

                         Standard orientation:
 ---------------------------------------------------------------------
 Center     Atomic      Atomic             Coordinates (Angstroms)
 Number     Number       Type             X           Y           Z
 ---------------------------------------------------------------------
      1          8           0       -1.321332    1.452469   -0.883924
      2          6           0       -0.585274    0.611434   -0.005731
      3          6           0       -1.492103   -0.115301    1.044729
      4          6           0       -1.471785   -1.379024    0.135178
      5          6           0       -0.257844   -0.788669   -0.618098
      6          8           0        0.921437   -1.351338   -0.078947
      7          6           0        2.064689   -0.523856   -0.197454
      8          6           0        1.836727    0.874790    0.313295
      9          6           0        0.614791    1.384595    0.434556
     10          1           0       -2.156857    1.020536   -1.091038
     11          1           0       -0.977790   -0.278271    1.993448
     12          1           0       -2.456112    0.362410    1.239533
     13          1           0       -1.285677   -2.341082    0.614312
     14          1           0       -2.358086   -1.466238   -0.499666
     15          1           0       -0.252813   -0.822273   -1.718038
     16          1           0        2.850946   -1.019311    0.382967
     17          1           0        2.416636   -0.489515   -1.244854
     18          1           0        2.719305    1.450434    0.578826
     19          1           0        0.444410    2.390447    0.808628
 ---------------------------------------------------------------------

 SCF Done:  E(RB3LYP) =  -423.172022032     A.U. after    1 cycles

 The electronic state is 1-A.
 Alpha  occ. eigenvalues --  -19.14053 -19.13890 -10.23465 -10.23209 -10.22464
 Alpha  occ. eigenvalues --  -10.18496 -10.18375 -10.18139 -10.17910  -1.03887
 Alpha  occ. eigenvalues --   -1.01954  -0.82679  -0.79082  -0.70021  -0.66013
 Alpha  occ. eigenvalues --   -0.62581  -0.58345  -0.51816  -0.51226  -0.49582
 Alpha  occ. eigenvalues --   -0.48746  -0.44391  -0.43281  -0.40538  -0.40075
 Alpha  occ. eigenvalues --   -0.38103  -0.37806  -0.34870  -0.34151  -0.33125
 Alpha  occ. eigenvalues --   -0.28965  -0.27855  -0.25221  -0.23265
 Alpha virt. eigenvalues --    0.01261   0.07394   0.08731   0.10753   0.12950
 Alpha virt. eigenvalues --    0.14018   0.14921   0.16067   0.16618   0.16850
 Alpha virt. eigenvalues --    0.17966   0.19216   0.19297   0.21364   0.23436

 Mulliken charges:
               1
     1  O   -0.484275
     2  C    0.347765
     3  C   -0.284911
     4  C   -0.257458
     5  C    0.066340
     6  O   -0.264258
     7  C   -0.126295
     8  C   -0.085616
     9  C   -0.089809
    10  H    0.279702
    11  H    0.116997
    12  H    0.096342
    13  H    0.115034
    14  H    0.095995
    15  H    0.060716
    16  H    0.116596
    17  H    0.102186
    18  H    0.097280
    19  H    0.097668
 Sum of Mulliken charges =   0.00000

 Dipole moment (field-independent basis, Debye):
    X=             -0.3855    Y=             -0.2228    Z=              0.1473  Tot=              0.4690
 Quadrupole moment (field-independent basis, Debye-Ang):
   XX=            -45.5520   YY=            -57.7275   ZZ=            -53.3027
   XY=              2.1885   XZ=              1.1076   YZ=              2.1947

  Exact polarizability:  94.570  -0.282  72.590  -0.457   3.384  62.586
 Approx polarizability: 134.430  -7.461 106.206  -0.158   2.580  94.751

                      1                      2                      3
                      A                      A                      A
 Frequencies --     96.9752               186.2363               235.5491
 Red. masses --      2.4903                 3.4469                 2.1273
 Frc consts  --      0.0138                 0.0704                 0.0695
 IR Inten    --      0.7046                 2.8911                 0.0873

                      4                      5                      6
                      A                      A                      A
 Frequencies --    245.3746               312.4198               350.4916
 Red. masses --      1.0768                 3.7451                 3.0473
 Frc consts  --      0.0382                 0.2154                 0.2206
 IR Inten    --     80.6175                 8.9119                10.7902

                      7                      8                      9
                      A                      A                      A
 Frequencies --    414.4330               469.5812               483.0466
 Red. masses --      3.1800                 2.5236                 6.4269
 Frc consts  --      0.3218                 0.3279                 0.8836
 IR Inten    --      3.1979                 3.3135                 1.1221

                     10                     11                     12
                      A                      A                      A
 Frequencies --    516.7559               633.1930               704.3075
 Red. masses --      3.4698                 3.7158                 1.3887
 Frc consts  --      0.5459                 0.8777                 0.4059
 IR Inten    --      0.8617                 9.9332                 5.5917

                     13                     14                     15
                      A                      A                      A
 Frequencies --    731.4299               807.6275               861.0904
 Red. masses --      1.5550                 3.0262                 2.6156
 Frc consts  --      0.4902                 1.1630                 1.1427
 IR Inten    --     12.0380                 6.2008                 2.5278

                     16                     17                     18
                      A                      A                      A
 Frequencies --    880.3519               919.2216               941.9425
 Red. masses --      2.4384                 2.8194                 2.5366
 Frc consts  --      1.1135                 1.4036                 1.3260
 IR Inten    --      7.7784                 4.8299                 2.8419

                     19                     20                     21
                      A                      A                      A
 Frequencies --    967.1509               993.2763               996.2491
 Red. masses --      2.0115                 1.4494                 1.9684
 Frc consts  --      1.1085                 0.8425                 1.1511
 IR Inten    --     24.6086                 5.3338                 4.1786

                     22                     23                     24
                      A                      A                      A
 Frequencies --   1042.9508              1052.0886              1099.3349
 Red. masses --      1.7507                 3.1563                 2.1436
 Frc consts  --      1.1220                 2.0584                 1.5264
 IR Inten    --     12.6144                 1.8348                64.9247

                     25                     26                     27
                      A                      A                      A
 Frequencies --   1125.3030              1156.5876              1166.9694
 Red. masses --      2.0257                 2.5002                 2.6349
 Frc consts  --      1.5114                 1.9705                 2.1142
 IR Inten    --     11.3351                68.5170                90.6370

                     28                     29                     30
                      A                      A                      A
 Frequencies --   1190.9673              1221.4509              1246.9477
 Red. masses --      1.3481                 1.4352                 1.2476
 Frc consts  --      1.1266                 1.2616                 1.1430
 IR Inten    --      6.3195                19.0976                 3.4340

                     31                     32                     33
                      A                      A                      A
 Frequencies --   1266.3283              1271.0255              1288.3086
 Red. masses --      1.4754                 1.2342                 1.6523
 Frc consts  --      1.3940                 1.1748                 1.6157
 IR Inten    --      5.3662                 6.0982                 0.1191

                     34                     35                     36
                      A                      A                      A
 Frequencies --   1348.9507              1365.9993              1402.7461
 Red. masses --      1.2756                 1.5038                 1.4495
 Frc consts  --      1.3676                 1.6533                 1.6804
 IR Inten    --      6.4246                39.9503                 8.9401

                     37                     38                     39
                      A                      A                      A
 Frequencies --   1433.1084              1467.2729              1482.2404
 Red. masses --      1.9970                 1.0833                 1.1205
 Frc consts  --      2.4166                 1.3742                 1.4505
 IR Inten    --      7.1193                 1.4420                 4.3667

                     40                     41                     42
                      A                      A                      A
 Frequencies --   1488.7296              1724.8869              2940.6660
 Red. masses --      1.0910                 7.2253                 1.0724
 Frc consts  --      1.4246                12.6656                 5.4639
 IR Inten    --      2.0352                 0.5917                58.2117

                     43                     44                     45
                      A                      A                      A
 Frequencies --   2988.3910              3059.1871              3061.2444
 Red. masses --      1.0852                 1.0876                 1.0606
 Frc consts  --      5.7099                 5.9969                 5.8558
 IR Inten    --     67.6217                33.0909                32.2885

                     46                     47                     48
                      A                      A                      A
 Frequencies --   3067.5229              3120.1883              3134.8395
 Red. masses --      1.0633                 1.1047                 1.1052
 Frc consts  --      5.8951                 6.3367                 6.3989
 IR Inten    --     27.3662                 4.7272                26.8917

                     49                     50                     51
                      A                      A                      A
 Frequencies --   3156.1414              3178.2702              3807.7706
 Red. masses --      1.0836                 1.0985                 1.0659
 Frc consts  --      6.3596                 6.5376                 9.1058
 IR Inten    --      5.5193                22.7276                10.3515

 - Thermochemistry -
 -------------------
 Temperature   298.150 Kelvin.  Pressure   1.00000 Atm.
 Atom     1 has atomic number  8 and mass  15.99491

 Molecular mass:   126.06808 amu.
 Principal axes and moments of inertia in atomic units:
                           1         2         3
     Eigenvalues --   711.837641013.345501386.67759
           X            0.99836   0.05658  -0.00891
           Y           -0.05637   0.99815   0.02293
           Z            0.01019  -0.02239   0.99970
 This molecule is an asymmetric top.
 Rotational symmetry number  1.
 Warning -- assumption of classical behavior for rotation
           may cause significant error
 Rotational temperatures (Kelvin)      0.12168     0.08547     0.06246
 Rotational constants (GHZ):           2.53533     1.78097     1.30149
 Zero-point vibrational energy     419309.8 (Joules/Mol)
                                  100.21744 (Kcal/Mol)
 Warning -- explicit consideration of  10 degrees of freedom as
           vibrations may cause significant error
 Vibrational temperatures:    139.53   267.95   338.90   353.04   449.50
          (Kelvin)            504.28   596.28   675.62   695.00   743.50
                              911.02  1013.34  1052.36  1161.99  1238.92
                             1266.63  1322.55  1355.24  1391.51  1429.10
                             1433.38  1500.57  1513.72  1581.70  1619.06
                             1664.07  1679.01  1713.53  1757.39  1794.08
                             1821.96  1828.72  1853.59  1940.84  1965.37
                             2018.24  2061.92  2111.08  2132.61  2141.95
                             2481.72  4230.96  4299.62  4401.48  4404.44
                             4413.48  4489.25  4510.33  4540.98  4572.82
                             5478.53

 Zero-point correction=                           0.159707 (Hartree/Particle)
 Thermal correction to Energy=                    0.167666
 Thermal correction to Enthalpy=                  0.168610
 Thermal correction to Gibbs Free Energy=         0.127564
 Sum of electronic and zero-point Energies=           -423.012315
 Sum of electronic and thermal Energies=              -423.004356
 Sum of electronic and thermal Enthalpies=            -423.003412
 Sum of electronic and thermal Free Energies=         -423.044458

                     E (Thermal)             CV                S
                      KCal/Mol        Cal/Mol-Kelvin    Cal/Mol-Kelvin
 Total                  105.212             31.623             86.388
 Electronic               0.000              0.000              0.000
 Translational            0.889              2.981             40.409
 Rotational               0.889              2.981             28.394
 Vibrational            103.434             25.661             17.585
 Vibration     1          0.603              1.951              3.514
 Vibration     2          0.632              1.859              2.265
 Vibration     3          0.655              1.786              1.836
 Vibration     4          0.660              1.770              1.764
 Vibration     5          0.701              1.650              1.349
 Vibration     6          0.727              1.574              1.164
 Vibration     7          0.778              1.439              0.911
 Vibration     8          0.827              1.318              0.739
 Vibration     9          0.839              1.288              0.702
 Vibration    10          0.872              1.213              0.618

 Normal termination of Gaussian 09 at Mon Jan 27 19:48:02 2020.
