 Gaussian 09, Revision D.01,
 Gaussian 09:  ES64L-G09RevD.01 24-Apr-2013

 -----------------------------
 # b3lyp 6-31G(2df,p) opt Freq
 -----------------------------

 -----
 titel
 -----
 Symbolic Z-matrix:
 Charge =  0 Multiplicity = 1

 SCF Done:  E(RB3LYP) =  -423.212378722     A.U. after   14 cycles
 Optimization completed.
    -- Stationary point found.
 Normal termination of Gaussian 09 at Tue Jan 28 14:07:58 2020.

 ----------------------------------------------------------------------
 #N Geom=AllCheck Guess=TCheck SCRF=Check GenChk RB3LYP/6-31G(2df,p) Fr
 eq
 ----------------------------------------------------------------------

 Structure from the checkpoint file:  "/scratch/puck/g09_be6a9ae0-fb47-4cdd-a854-9fb287fc7767/Gau-144618.chk"
 -----
 titel
 -----
 Charge =  0 Multiplicity = 1

                         Standard orientation:
 ---------------------------------------------------------------------
 Center     Atomic      Atomic             Coordinates (Angstroms)
 Number     Number       Type             X           Y           Z
 ---------------------------------------------------------------------
      1          6           0        3.265237    0.090729   -0.121033
      2          6           0        1.899988   -0.548085   -0.386326
      3          6           0        0.761692    0.068084    0.443532
      4          6           0        0.299765    1.455463    0.046118
      5          6           0       -1.027074    1.563882   -0.056152
      6          6           0       -1.729111    0.286694    0.323651
      7          8           0       -2.757591   -0.110438   -0.552232
      8          6           0       -0.555722   -0.707786    0.320607
      9          8           0       -0.693750   -1.888231    0.121523
     10          1           0        4.042779   -0.387993   -0.723806
     11          1           0        3.270664    1.158057   -0.366320
     12          1           0        3.551618   -0.008831    0.931917
     13          1           0        1.646588   -0.465341   -1.449983
     14          1           0        1.934161   -1.619309   -0.161234
     15          1           0        1.061516    0.050367    1.504717
     16          1           0        0.999825    2.264126   -0.131561
     17          1           0       -1.572173    2.458585   -0.331259
     18          1           0       -2.115628    0.360493    1.358874
     19          1           0       -2.697267   -1.074690   -0.608054
 ---------------------------------------------------------------------

 SCF Done:  E(RB3LYP) =  -423.212378722     A.U. after    1 cycles

 The electronic state is 1-A.
 Alpha  occ. eigenvalues --  -19.15080 -19.13700 -10.27625 -10.24217 -10.20681
 Alpha  occ. eigenvalues --  -10.19859 -10.19418 -10.19083 -10.18258  -1.06320
 Alpha  occ. eigenvalues --   -1.01820  -0.85439  -0.78029  -0.70315  -0.68683
 Alpha  occ. eigenvalues --   -0.61616  -0.55519  -0.55269  -0.50283  -0.49318
 Alpha  occ. eigenvalues --   -0.46707  -0.45690  -0.42549  -0.42278  -0.40626
 Alpha  occ. eigenvalues --   -0.39681  -0.37989  -0.36346  -0.35283  -0.34746
 Alpha  occ. eigenvalues --   -0.33649  -0.27928  -0.26529  -0.25007
 Alpha virt. eigenvalues --   -0.02830   0.00180   0.09406   0.10199   0.12065
 Alpha virt. eigenvalues --    0.12797   0.13981   0.14922   0.15031   0.16289
 Alpha virt. eigenvalues --    0.17330   0.19026   0.20567   0.21640   0.22893

 Mulliken charges:
               1
     1  C   -0.393220
     2  C   -0.173927
     3  C   -0.156123
     4  C   -0.076108
     5  C   -0.103226
     6  C    0.019494
     7  O   -0.440728
     8  C    0.347641
     9  O   -0.325058
    10  H    0.120182
    11  H    0.117984
    12  H    0.116912
    13  H    0.106279
    14  H    0.121733
    15  H    0.109410
    16  H    0.107548
    17  H    0.113161
    18  H    0.094589
    19  H    0.293458
 Sum of Mulliken charges =   0.00000

 Dipole moment (field-independent basis, Debye):
    X=              1.7907    Y=              1.4276    Z=              0.9435  Tot=              2.4768
 Quadrupole moment (field-independent basis, Debye-Ang):
   XX=            -55.2778   YY=            -55.0011   ZZ=            -52.6753
   XY=              0.6036   XZ=             -1.8162   YZ=              0.4398

  Exact polarizability:  97.414  -0.593  76.913   1.137  -0.189  57.075
 Approx polarizability: 132.236  -0.246 118.569   4.789   0.541  90.315

                      1                      2                      3
                      A                      A                      A
 Frequencies --     52.7821                86.6582               159.8957
 Red. masses --      5.8512                 2.1165                 3.4110
 Frc consts  --      0.0096                 0.0094                 0.0514
 IR Inten    --      1.0799                 0.5626                 0.7141

                      4                      5                      6
                      A                      A                      A
 Frequencies --    197.7534               254.1948               267.8387
 Red. masses --      1.7933                 1.6322                 3.9921
 Frc consts  --      0.0413                 0.0621                 0.1687
 IR Inten    --      5.1148                 5.6489                15.4475

                      7                      8                      9
                      A                      A                      A
 Frequencies --    312.9831               345.5218               354.4759
 Red. masses --      3.8108                 2.3527                 1.2550
 Frc consts  --      0.2199                 0.1655                 0.0929
 IR Inten    --      5.9308                18.0586                65.5200

                     10                     11                     12
                      A                      A                      A
 Frequencies --    496.6648               551.5719               619.5783
 Red. masses --      4.5900                 2.9297                 4.2321
 Frc consts  --      0.6671                 0.5251                 0.9572
 IR Inten    --      3.2255                 2.2344                 1.0859

                     13                     14                     15
                      A                      A                      A
 Frequencies --    678.2239               721.0608               746.5036
 Red. masses --      3.0100                 2.1690                 2.2195
 Frc consts  --      0.8158                 0.6644                 0.7287
 IR Inten    --     11.2791                 4.5636                10.8100

                     16                     17                     18
                      A                      A                      A
 Frequencies --    791.3630               893.0283               904.5414
 Red. masses --      1.4845                 3.9973                 2.1124
 Frc consts  --      0.5478                 1.8782                 1.0183
 IR Inten    --      9.2345                14.1136                15.0818

                     19                     20                     21
                      A                      A                      A
 Frequencies --    966.0607               980.7935              1002.1406
 Red. masses --      1.9013                 1.2705                 2.4993
 Frc consts  --      1.0455                 0.7201                 1.4789
 IR Inten    --      3.9414                 0.3285                 9.6039

                     22                     23                     24
                      A                      A                      A
 Frequencies --   1042.4278              1063.8987              1110.9149
 Red. masses --      2.5306                 1.9716                 1.4457
 Frc consts  --      1.6202                 1.3148                 1.0512
 IR Inten    --     36.5415                 1.6024                 7.3829

                     25                     26                     27
                      A                      A                      A
 Frequencies --   1127.6856              1158.6725              1169.8769
 Red. masses --      1.3894                 2.1412                 2.3448
 Frc consts  --      1.0410                 1.6937                 1.8908
 IR Inten    --     34.5094                55.2039                32.1363

                     28                     29                     30
                      A                      A                      A
 Frequencies --   1215.0929              1247.7321              1268.9559
 Red. masses --      1.5865                 1.5715                 1.4436
 Frc consts  --      1.3801                 1.4415                 1.3696
 IR Inten    --     37.5324                 1.7015                 2.7775

                     31                     32                     33
                      A                      A                      A
 Frequencies --   1319.4849              1339.6713              1369.2802
 Red. masses --      1.1742                 1.2853                 1.4444
 Frc consts  --      1.2045                 1.3590                 1.5956
 IR Inten    --      3.3302                19.3790                17.3862

                     34                     35                     36
                      A                      A                      A
 Frequencies --   1379.9274              1411.5450              1417.1494
 Red. masses --      1.7152                 1.4638                 1.3862
 Frc consts  --      1.9243                 1.7184                 1.6402
 IR Inten    --     11.7589                 9.3949                13.8425

                     37                     38                     39
                      A                      A                      A
 Frequencies --   1487.7723              1500.3789              1506.4474
 Red. masses --      1.0597                 1.0454                 1.0647
 Frc consts  --      1.3820                 1.3866                 1.4236
 IR Inten    --      0.7458                 5.6156                 3.7618

                     40                     41                     42
                      A                      A                      A
 Frequencies --   1669.6091              1841.7415              2910.3241
 Red. masses --      6.7973                12.8883                 1.0779
 Frc consts  --     11.1639                25.7574                 5.3789
 IR Inten    --      1.5999               156.7483                40.0507

                     43                     44                     45
                      A                      A                      A
 Frequencies --   2970.4730              3031.9117              3038.5213
 Red. masses --      1.0792                 1.0380                 1.0596
 Frc consts  --      5.6108                 5.6219                 5.7640
 IR Inten    --     12.2748                19.5527                22.5132

                     46                     47                     48
                      A                      A                      A
 Frequencies --   3075.1748              3101.9126              3106.1802
 Red. masses --      1.0999                 1.1025                 1.1005
 Frc consts  --      6.1284                 6.2499                 6.2562
 IR Inten    --      0.8961                42.2195                32.6392

                     49                     50                     51
                      A                      A                      A
 Frequencies --   3190.3905              3217.1898              3741.2399
 Red. masses --      1.0864                 1.1020                 1.0654
 Frc consts  --      6.5149                 6.7202                 8.7861
 IR Inten    --      5.3204                10.1335                34.6535

 - Thermochemistry -
 -------------------
 Temperature   298.150 Kelvin.  Pressure   1.00000 Atm.
 Atom     1 has atomic number  6 and mass  12.00000

 Molecular mass:   126.06808 amu.
 Principal axes and moments of inertia in atomic units:
                           1         2         3
     Eigenvalues --   571.060001583.191962009.28645
           X            0.99997  -0.00307  -0.00680
           Y            0.00312   0.99997   0.00746
           Z            0.00678  -0.00748   0.99995
 This molecule is an asymmetric top.
 Rotational symmetry number  1.
 Warning -- assumption of classical behavior for rotation
           may cause significant error
 Rotational temperatures (Kelvin)      0.15167     0.05471     0.04311
 Rotational constants (GHZ):           3.16034     1.13994     0.89820
 Zero-point vibrational energy     415195.2 (Joules/Mol)
                                   99.23403 (Kcal/Mol)
 Warning -- explicit consideration of  12 degrees of freedom as
           vibrations may cause significant error
 Vibrational temperatures:     75.94   124.68   230.05   284.52   365.73
          (Kelvin)            385.36   450.31   497.13   510.01   714.59
                              793.59   891.43   975.81  1037.44  1074.05
                             1138.59  1284.87  1301.43  1389.94  1411.14
                             1441.86  1499.82  1530.71  1598.36  1622.49
                             1667.07  1683.19  1748.25  1795.21  1825.74
                             1898.44  1927.49  1970.09  1985.41  2030.90
                             2038.96  2140.57  2158.71  2167.44  2402.19
                             2649.85  4187.30  4273.84  4362.24  4371.75
                             4424.49  4462.95  4469.09  4590.25  4628.81
                             5382.80

 Zero-point correction=                           0.158139 (Hartree/Particle)
 Thermal correction to Energy=                    0.167271
 Thermal correction to Enthalpy=                  0.168216
 Thermal correction to Gibbs Free Energy=         0.123810
 Sum of electronic and zero-point Energies=           -423.054239
 Sum of electronic and thermal Energies=              -423.045107
 Sum of electronic and thermal Enthalpies=            -423.044163
 Sum of electronic and thermal Free Energies=         -423.088569

                     E (Thermal)             CV                S
                      KCal/Mol        Cal/Mol-Kelvin    Cal/Mol-Kelvin
 Total                  104.964             33.723             93.459
 Electronic               0.000              0.000              0.000
 Translational            0.889              2.981             40.409
 Rotational               0.889              2.981             28.987
 Vibrational            103.187             27.761             24.064
 Vibration     1          0.596              1.976              4.710
 Vibration     2          0.601              1.958              3.734
 Vibration     3          0.622              1.891              2.551
 Vibration     4          0.637              1.843              2.154
 Vibration     5          0.665              1.756              1.701
 Vibration     6          0.673              1.732              1.610
 Vibration     7          0.701              1.649              1.347
 Vibration     8          0.724              1.584              1.187
 Vibration     9          0.730              1.566              1.146
 Vibration    10          0.852              1.257              0.667
 Vibration    11          0.907              1.136              0.541
 Vibration    12          0.980              0.991              0.417

 Optimization completed.
    -- Stationary point found.
 Normal termination of Gaussian 09 at Tue Jan 28 14:46:12 2020.
