 Gaussian 09, Revision D.01,
 Gaussian 09:  ES64L-G09RevD.01 24-Apr-2013

 -----------------------------
 # b3lyp 6-31G(2df,p) opt Freq
 -----------------------------

 -----
 titel
 -----
 Symbolic Z-matrix:
 Charge =  0 Multiplicity = 1

 SCF Done:  E(RB3LYP) =  -423.228673099     A.U. after   14 cycles
 Optimization completed.
    -- Stationary point found.
 Normal termination of Gaussian 09 at Mon Jan 27 16:10:24 2020.

 ----------------------------------------------------------------------
 #N Geom=AllCheck Guess=TCheck SCRF=Check GenChk RB3LYP/6-31G(2df,p) Fr
 eq
 ----------------------------------------------------------------------

 Structure from the checkpoint file:  "/scratch/puck/g09_0ea50f57-626a-4dd1-9009-2b1d22304d5e/Gau-176522.chk"
 -----
 titel
 -----
 Charge =  0 Multiplicity = 1

                         Standard orientation:
 ---------------------------------------------------------------------
 Center     Atomic      Atomic             Coordinates (Angstroms)
 Number     Number       Type             X           Y           Z
 ---------------------------------------------------------------------
      1          6           0        1.097942   -0.082777    1.589956
      2          6           0        1.174712   -0.085514    0.073731
      3          6           0        2.536625   -0.494752   -0.462523
      4          6           0        0.415873    0.909461   -0.761087
      5          6           0       -0.746834    1.645745   -0.115079
      6          8           0       -1.676706    0.647276    0.336344
      7          6           0       -1.347692   -0.600062   -0.130953
      8          8           0       -2.081519   -1.536472   -0.001184
      9          6           0       -0.004986   -0.545005   -0.785251
     10          1           0        1.343971   -1.074437    1.984421
     11          1           0        1.824781    0.625890    2.003501
     12          1           0        0.110530    0.188028    1.968639
     13          1           0        2.563796   -0.477943   -1.556217
     14          1           0        3.314511    0.184628   -0.096092
     15          1           0        2.796960   -1.506929   -0.134618
     16          1           0        0.903940    1.375788   -1.609109
     17          1           0       -0.457859    2.251535    0.749771
     18          1           0       -1.258490    2.291237   -0.837266
     19          1           0        0.169828   -1.226806   -1.607066
 ---------------------------------------------------------------------

 SCF Done:  E(RB3LYP) =  -423.228673099     A.U. after    1 cycles

 The electronic state is 1-A.
 Alpha  occ. eigenvalues --  -19.17654 -19.11734 -10.30023 -10.25189 -10.22300
 Alpha  occ. eigenvalues --  -10.21204 -10.20808 -10.19178 -10.18664  -1.09429
 Alpha  occ. eigenvalues --   -1.01623  -0.89280  -0.75461  -0.73079  -0.70403
 Alpha  occ. eigenvalues --   -0.62659  -0.59462  -0.54014  -0.50930  -0.49047
 Alpha  occ. eigenvalues --   -0.47024  -0.44677  -0.43873  -0.41658  -0.41214
 Alpha  occ. eigenvalues --   -0.40556  -0.39252  -0.38914  -0.37044  -0.34218
 Alpha  occ. eigenvalues --   -0.31435  -0.29020  -0.28717  -0.25940
 Alpha virt. eigenvalues --    0.01081   0.07604   0.09757   0.10373   0.11732
 Alpha virt. eigenvalues --    0.12133   0.13976   0.14812   0.15705   0.17481
 Alpha virt. eigenvalues --    0.17965   0.18096   0.18841   0.19762   0.20759

 Mulliken charges:
               1
     1  C   -0.471494
     2  C    0.314593
     3  C   -0.453500
     4  C   -0.118885
     5  C   -0.112848
     6  O   -0.229544
     7  C    0.443002
     8  O   -0.345829
     9  C   -0.241489
    10  H    0.128513
    11  H    0.117705
    12  H    0.144403
    13  H    0.117906
    14  H    0.122147
    15  H    0.127614
    16  H    0.099215
    17  H    0.122268
    18  H    0.122682
    19  H    0.113538
 Sum of Mulliken charges =   0.00000

 Dipole moment (field-independent basis, Debye):
    X=              3.7177    Y=              2.4572    Z=             -1.0039  Tot=              4.5680
 Quadrupole moment (field-independent basis, Debye-Ang):
   XX=            -60.0919   YY=            -53.8531   ZZ=            -50.9609
   XY=             -5.0908   XZ=              1.3435   YZ=             -0.2810

  Exact polarizability:  82.281   1.459  77.329   0.803  -0.063  66.652
 Approx polarizability: 113.945   9.287 123.071   0.697   0.566  97.579

                      1                      2                      3
                      A                      A                      A
 Frequencies --    128.7091               191.0741               198.3896
 Red. masses --      4.4879                 1.9425                 4.5246
 Frc consts  --      0.0438                 0.0418                 0.1049
 IR Inten    --      1.9770                 0.4805                 3.3661

                      4                      5                      6
                      A                      A                      A
 Frequencies --    218.6730               231.2003               272.6276
 Red. masses --      1.2876                 1.3484                 1.6125
 Frc consts  --      0.0363                 0.0425                 0.0706
 IR Inten    --      0.2879                 0.1363                 1.1687

                      7                      8                      9
                      A                      A                      A
 Frequencies --    350.4081               413.0566               450.2539
 Red. masses --      2.4020                 2.8088                 2.5787
 Frc consts  --      0.1738                 0.2824                 0.3080
 IR Inten    --      0.2133                 0.8505                 1.2069

                     10                     11                     12
                      A                      A                      A
 Frequencies --    488.4697               639.0684               660.9820
 Red. masses --      5.4728                 6.6416                 4.5587
 Frc consts  --      0.7694                 1.5982                 1.1735
 IR Inten    --      3.8044                 2.8108                 1.8232

                     13                     14                     15
                      A                      A                      A
 Frequencies --    735.6780               782.9177               828.7148
 Red. masses --      4.5393                 6.1409                 2.7315
 Frc consts  --      1.4475                 2.2178                 1.1053
 IR Inten    --      1.3856                 3.7860                 2.8713

                     16                     17                     18
                      A                      A                      A
 Frequencies --    862.8102               904.4850               973.0479
 Red. masses --      2.2612                 2.1164                 1.6764
 Frc consts  --      0.9918                 1.0201                 0.9352
 IR Inten    --      8.0917                15.6620                 3.8467

                     19                     20                     21
                      A                      A                      A
 Frequencies --    982.2321               990.0731              1003.0496
 Red. masses --      1.5498                 2.3548                 1.5807
 Frc consts  --      0.8809                 1.3600                 0.9370
 IR Inten    --      9.0981                17.1648                19.2152

                     22                     23                     24
                      A                      A                      A
 Frequencies --   1051.6522              1055.2549              1072.4214
 Red. masses --      1.3316                 2.2462                 2.5551
 Frc consts  --      0.8677                 1.4737                 1.7314
 IR Inten    --      2.5113                32.3185                54.7893

                     25                     26                     27
                      A                      A                      A
 Frequencies --   1118.1376              1145.2754              1182.8252
 Red. masses --      2.0619                 1.8369                 2.4593
 Frc consts  --      1.5189                 1.4196                 2.0272
 IR Inten    --     17.7178                12.0868                94.6305

                     28                     29                     30
                      A                      A                      A
 Frequencies --   1215.1031              1239.3320              1302.5712
 Red. masses --      1.9646                 1.1290                 2.1279
 Frc consts  --      1.7091                 1.0217                 2.1272
 IR Inten    --      1.9352                11.6835                 7.4019

                     31                     32                     33
                      A                      A                      A
 Frequencies --   1313.0818              1386.1145              1412.1085
 Red. masses --      1.8867                 1.9787                 1.2754
 Frc consts  --      1.9166                 2.2399                 1.4984
 IR Inten    --      3.5507                38.5555                 2.8862

                     34                     35                     36
                      A                      A                      A
 Frequencies --   1420.0863              1436.3698              1485.4173
 Red. masses --      1.9026                 1.3451                 1.0442
 Frc consts  --      2.2606                 1.6350                 1.3575
 IR Inten    --      4.0804                 0.6227                 0.3790

                     37                     38                     39
                      A                      A                      A
 Frequencies --   1491.9176              1504.9910              1512.5950
 Red. masses --      1.0496                 1.0570                 1.1106
 Frc consts  --      1.3764                 1.4106                 1.4972
 IR Inten    --      4.3775                 5.2381                 0.1367

                     40                     41                     42
                      A                      A                      A
 Frequencies --   1521.4343              1877.5687              3027.8574
 Red. masses --      1.0855                12.6604                 1.0356
 Frc consts  --      1.4805                26.2960                 5.5938
 IR Inten    --      2.3054               405.7890                21.9951

                     43                     44                     45
                      A                      A                      A
 Frequencies --   3034.3128              3040.8136              3081.1457
 Red. masses --      1.0392                 1.0569                 1.1087
 Frc consts  --      5.6375                 5.7581                 6.2014
 IR Inten    --     34.7894                45.7968                22.0328

                     46                     47                     48
                      A                      A                      A
 Frequencies --   3090.1917              3093.5763              3105.7392
 Red. masses --      1.1005                 1.1004                 1.1015
 Frc consts  --      6.1920                 6.2050                 6.2598
 IR Inten    --      1.2648                34.8908                22.8745

                     49                     50                     51
                      A                      A                      A
 Frequencies --   3130.8475              3175.7420              3204.9684
 Red. masses --      1.0983                 1.0906                 1.0921
 Frc consts  --      6.3431                 6.4803                 6.6093
 IR Inten    --     10.5802                 9.7317                 2.5546

 - Thermochemistry -
 -------------------
 Temperature   298.150 Kelvin.  Pressure   1.00000 Atm.
 Atom     1 has atomic number  6 and mass  12.00000

 Molecular mass:   126.06808 amu.
 Principal axes and moments of inertia in atomic units:
                           1         2         3
     Eigenvalues --   663.532671272.057861433.09498
           X            0.99897  -0.04513   0.00426
           Y            0.04514   0.99898  -0.00143
           Z           -0.00419   0.00162   0.99999
 This molecule is an asymmetric top.
 Rotational symmetry number  1.
 Warning -- assumption of classical behavior for rotation
           may cause significant error
 Rotational temperatures (Kelvin)      0.13053     0.06809     0.06044
 Rotational constants (GHZ):           2.71990     1.41876     1.25933
 Zero-point vibrational energy     418904.6 (Joules/Mol)
                                  100.12059 (Kcal/Mol)
 Warning -- explicit consideration of  10 degrees of freedom as
           vibrations may cause significant error
 Vibrational temperatures:    185.18   274.91   285.44   314.62   332.65
          (Kelvin)            392.25   504.16   594.30   647.81   702.80
                              919.48   951.00  1058.48  1126.44  1192.33
                             1241.39  1301.35  1400.00  1413.21  1424.49
                             1443.16  1513.09  1518.27  1542.97  1608.75
                             1647.79  1701.82  1748.26  1783.12  1874.11
                             1889.23  1994.31  2031.71  2043.18  2066.61
                             2137.18  2146.53  2165.34  2176.28  2189.00
                             2701.40  4356.41  4365.69  4375.05  4433.08
                             4446.09  4450.96  4468.46  4504.59  4569.18
                             4611.23

 Zero-point correction=                           0.159552 (Hartree/Particle)
 Thermal correction to Energy=                    0.167906
 Thermal correction to Enthalpy=                  0.168851
 Thermal correction to Gibbs Free Energy=         0.127018
 Sum of electronic and zero-point Energies=           -423.069121
 Sum of electronic and thermal Energies=              -423.060767
 Sum of electronic and thermal Enthalpies=            -423.059822
 Sum of electronic and thermal Free Energies=         -423.101655

                     E (Thermal)             CV                S
                      KCal/Mol        Cal/Mol-Kelvin    Cal/Mol-Kelvin
 Total                  105.363             32.212             88.044
 Electronic               0.000              0.000              0.000
 Translational            0.889              2.981             40.409
 Rotational               0.889              2.981             28.583
 Vibrational            103.585             26.250             19.052
 Vibration     1          0.611              1.925              2.965
 Vibration     2          0.634              1.852              2.217
 Vibration     3          0.637              1.842              2.148
 Vibration     4          0.646              1.813              1.970
 Vibration     5          0.653              1.793              1.870
 Vibration     6          0.676              1.724              1.579
 Vibration     7          0.727              1.574              1.164
 Vibration     8          0.777              1.442              0.916
 Vibration     9          0.809              1.360              0.795
 Vibration    10          0.844              1.276              0.688

 Normal termination of Gaussian 09 at Mon Jan 27 16:57:29 2020.
