 Gaussian 09, Revision D.01,
 Gaussian 09:  ES64L-G09RevD.01 24-Apr-2013

 -----------------------------
 # b3lyp 6-31G(2df,p) opt Freq
 -----------------------------

 -----
 titel
 -----
 Symbolic Z-matrix:
 Charge =  0 Multiplicity = 1

 SCF Done:  E(RB3LYP) =  -423.212203672     A.U. after   14 cycles
 Optimization completed.
    -- Stationary point found.
 Normal termination of Gaussian 09 at Tue Jan 28 03:58:23 2020.

 ----------------------------------------------------------------------
 #N Geom=AllCheck Guess=TCheck SCRF=Check GenChk RB3LYP/6-31G(2df,p) Fr
 eq
 ----------------------------------------------------------------------

 Structure from the checkpoint file:  "/scratch/puck/g09_592d237d-98ad-4530-bcb2-c37ea5357036/Gau-14291.chk"
 -----
 titel
 -----
 Charge =  0 Multiplicity = 1

                         Standard orientation:
 ---------------------------------------------------------------------
 Center     Atomic      Atomic             Coordinates (Angstroms)
 Number     Number       Type             X           Y           Z
 ---------------------------------------------------------------------
      1          6           0        2.780668    0.079098   -0.540068
      2          6           0        1.510963   -0.235414    0.228833
      3          8           0        1.531599   -0.560007    1.394079
      4          6           0        0.198127   -0.103116   -0.552230
      5          6           0       -0.211199    1.358266   -0.627006
      6          6           0       -1.278414    1.612220    0.127155
      7          6           0       -1.789870    0.377420    0.823584
      8          6           0       -1.003420   -0.778341    0.148183
      9          8           0       -1.758927   -1.406418   -0.883783
     10          1           0        2.936584   -0.681958   -1.313943
     11          1           0        2.700305    1.041967   -1.055264
     12          1           0        3.635442    0.088112    0.137162
     13          1           0        0.333200   -0.538513   -1.549932
     14          1           0        0.336641    2.087745   -1.212313
     15          1           0       -1.736681    2.587944    0.245619
     16          1           0       -1.593705    0.420236    1.902529
     17          1           0       -2.870510    0.234140    0.699535
     18          1           0       -0.660943   -1.513296    0.883995
     19          1           0       -2.502835   -1.855779   -0.470451
 ---------------------------------------------------------------------

 SCF Done:  E(RB3LYP) =  -423.212203672     A.U. after    1 cycles

 The electronic state is 1-A.
 Alpha  occ. eigenvalues --  -19.13320 -19.12814 -10.26948 -10.22957 -10.19263
 Alpha  occ. eigenvalues --  -10.18903 -10.18708 -10.18534 -10.18297  -1.03924
 Alpha  occ. eigenvalues --   -1.01543  -0.84081  -0.75729  -0.71099  -0.70121
 Alpha  occ. eigenvalues --   -0.59533  -0.54933  -0.52658  -0.50633  -0.49532
 Alpha  occ. eigenvalues --   -0.44959  -0.43666  -0.43288  -0.42546  -0.39113
 Alpha  occ. eigenvalues --   -0.38610  -0.37927  -0.36817  -0.35872  -0.34003
 Alpha  occ. eigenvalues --   -0.31881  -0.26788  -0.26370  -0.23094
 Alpha virt. eigenvalues --   -0.01527   0.02754   0.08009   0.09273   0.12502
 Alpha virt. eigenvalues --    0.13314   0.13948   0.14476   0.15646   0.16908
 Alpha virt. eigenvalues --    0.18538   0.19085   0.19635   0.20474   0.22795

 Mulliken charges:
               1
     1  C   -0.479779
     2  C    0.373498
     3  O   -0.301773
     4  C   -0.133102
     5  C   -0.084853
     6  C   -0.047961
     7  C   -0.282805
     8  C    0.103384
     9  O   -0.448203
    10  H    0.144266
    11  H    0.138247
    12  H    0.141703
    13  H    0.099651
    14  H    0.095574
    15  H    0.097010
    16  H    0.120954
    17  H    0.096169
    18  H    0.087081
    19  H    0.280939
 Sum of Mulliken charges =   0.00000

 Dipole moment (field-independent basis, Debye):
    X=             -0.5865    Y=              0.6527    Z=             -0.9740  Tot=              1.3110
 Quadrupole moment (field-independent basis, Debye-Ang):
   XX=            -47.4885   YY=            -50.7293   ZZ=            -57.7027
   XY=              2.6012   XZ=             -7.5319   YZ=             -0.4831

  Exact polarizability:  91.205  -1.820  70.903  -9.445  -2.183  69.489
 Approx polarizability: 122.996  -4.236 102.697 -15.273  -4.478 118.862

                      1                      2                      3
                      A                      A                      A
 Frequencies --     47.1094                61.9344               118.9112
 Red. masses --      3.8774                 3.1379                 1.0856
 Frc consts  --      0.0051                 0.0071                 0.0090
 IR Inten    --      3.6448                 0.6291                 0.0022

                      4                      5                      6
                      A                      A                      A
 Frequencies --    171.7605               193.5447               278.8191
 Red. masses --      3.8618                 3.2415                 1.1660
 Frc consts  --      0.0671                 0.0715                 0.0534
 IR Inten    --      5.2296                 7.4982                94.0640

                      7                      8                      9
                      A                      A                      A
 Frequencies --    309.0146               381.7026               414.9957
 Red. masses --      3.7402                 2.8075                 4.9101
 Frc consts  --      0.2104                 0.2410                 0.4982
 IR Inten    --      3.7374                 5.4152                 5.7195

                     10                     11                     12
                      A                      A                      A
 Frequencies --    441.8552               576.1727               594.9606
 Red. masses --      2.4003                 2.5790                 3.5921
 Frc consts  --      0.2761                 0.5044                 0.7492
 IR Inten    --      5.1547                 1.8832                17.0266

                     13                     14                     15
                      A                      A                      A
 Frequencies --    703.0047               759.2256               788.8493
 Red. masses --      1.5761                 2.8255                 4.9575
 Frc consts  --      0.4589                 0.9596                 1.8176
 IR Inten    --     22.7781                 7.0816                 3.4838

                     16                     17                     18
                      A                      A                      A
 Frequencies --    860.5476               881.1168               920.4112
 Red. masses --      2.4047                 2.8059                 2.3881
 Frc consts  --      1.0492                 1.2835                 1.1919
 IR Inten    --      1.6914                36.2968                 3.1806

                     19                     20                     21
                      A                      A                      A
 Frequencies --    950.0536               971.7718               974.3530
 Red. masses --      1.8413                 1.3966                 2.4003
 Frc consts  --      0.9792                 0.7770                 1.3426
 IR Inten    --     19.2610                 2.4381                38.7750

                     22                     23                     24
                      A                      A                      A
 Frequencies --    987.5058              1039.0848              1060.3086
 Red. masses --      2.2825                 1.9991                 1.8937
 Frc consts  --      1.3114                 1.2717                 1.2544
 IR Inten    --      8.8338                 9.5960                10.6017

                     25                     26                     27
                      A                      A                      A
 Frequencies --   1085.4287              1134.2455              1174.6429
 Red. masses --      2.4923                 1.1302                 1.6163
 Frc consts  --      1.7300                 0.8567                 1.3140
 IR Inten    --     12.4405                 3.2367                54.5239

                     28                     29                     30
                      A                      A                      A
 Frequencies --   1201.0606              1216.1354              1257.3787
 Red. masses --      1.4484                 1.2466                 1.3944
 Frc consts  --      1.2310                 1.0863                 1.2989
 IR Inten    --      9.7236                24.3288                13.2415

                     31                     32                     33
                      A                      A                      A
 Frequencies --   1297.7165              1313.9152              1323.8586
 Red. masses --      1.8471                 1.5965                 1.3312
 Frc consts  --      1.8327                 1.6239                 1.3746
 IR Inten    --     35.2571                70.0590                 4.9402

                     34                     35                     36
                      A                      A                      A
 Frequencies --   1380.4373              1381.6167              1422.9389
 Red. masses --      1.4837                 1.3099                 1.5351
 Frc consts  --      1.6658                 1.4732                 1.8313
 IR Inten    --     11.5413                36.8600                 3.1673

                     37                     38                     39
                      A                      A                      A
 Frequencies --   1461.5415              1463.6197              1475.8941
 Red. masses --      1.0588                 1.0989                 1.0511
 Frc consts  --      1.3326                 1.3870                 1.3489
 IR Inten    --     11.7074                 0.8502                 8.4493

                     40                     41                     42
                      A                      A                      A
 Frequencies --   1682.1171              1807.2208              3021.7581
 Red. masses --      6.2891                10.6760                 1.0596
 Frc consts  --     10.4847                20.5438                 5.7004
 IR Inten    --      2.2130               126.6830                29.5542

                     43                     44                     45
                      A                      A                      A
 Frequencies --   3034.5654              3040.3230              3051.1398
 Red. masses --      1.0548                 1.0641                 1.0918
 Frc consts  --      5.7230                 5.7952                 5.9884
 IR Inten    --      1.6109                11.9564                18.5945

                     46                     47                     48
                      A                      A                      A
 Frequencies --   3059.1098              3098.5815              3152.3008
 Red. masses --      1.0959                 1.0971                 1.1022
 Frc consts  --      6.0422                 6.2060                 6.4533
 IR Inten    --     32.1957                 8.1767                11.2965

                     49                     50                     51
                      A                      A                      A
 Frequencies --   3183.7330              3209.3973              3817.5648
 Red. masses --      1.0842                 1.1039                 1.0662
 Frc consts  --      6.4749                 6.6991                 9.1547
 IR Inten    --      4.7910                19.6681                19.0057

 - Thermochemistry -
 -------------------
 Temperature   298.150 Kelvin.  Pressure   1.00000 Atm.
 Atom     1 has atomic number  6 and mass  12.00000

 Molecular mass:   126.06808 amu.
 Principal axes and moments of inertia in atomic units:
                           1         2         3
     Eigenvalues --   696.016611447.064641599.73458
           X            0.99887   0.00587  -0.04719
           Y           -0.00680   0.99978  -0.01962
           Z            0.04707   0.01992   0.99869
 This molecule is an asymmetric top.
 Rotational symmetry number  1.
 Warning -- assumption of classical behavior for rotation
           may cause significant error
 Rotational temperatures (Kelvin)      0.12444     0.05985     0.05414
 Rotational constants (GHZ):           2.59296     1.24717     1.12815
 Zero-point vibrational energy     414118.8 (Joules/Mol)
                                   98.97677 (Kcal/Mol)
 Warning -- explicit consideration of  12 degrees of freedom as
           vibrations may cause significant error
 Vibrational temperatures:     67.78    89.11   171.09   247.12   278.47
          (Kelvin)            401.16   444.60   549.18   597.09   635.73
                              828.98   856.01  1011.47  1092.35  1134.98
                             1238.13  1267.73  1324.26  1366.91  1398.16
                             1401.87  1420.80  1495.01  1525.55  1561.69
                             1631.92  1690.05  1728.06  1749.75  1809.09
                             1867.12  1890.43  1904.73  1986.14  1987.84
                             2047.29  2102.83  2105.82  2123.48  2420.19
                             2600.18  4347.63  4366.06  4374.34  4389.90
                             4401.37  4458.16  4535.45  4580.68  4617.60
                             5492.62

 Zero-point correction=                           0.157730 (Hartree/Particle)
 Thermal correction to Energy=                    0.167044
 Thermal correction to Enthalpy=                  0.167988
 Thermal correction to Gibbs Free Energy=         0.122757
 Sum of electronic and zero-point Energies=           -423.054474
 Sum of electronic and thermal Energies=              -423.045160
 Sum of electronic and thermal Enthalpies=            -423.044216
 Sum of electronic and thermal Free Energies=         -423.089446

                     E (Thermal)             CV                S
                      KCal/Mol        Cal/Mol-Kelvin    Cal/Mol-Kelvin
 Total                  104.822             33.858             95.196
 Electronic               0.000              0.000              0.000
 Translational            0.889              2.981             40.409
 Rotational               0.889              2.981             28.868
 Vibrational            103.044             27.897             25.920
 Vibration     1          0.595              1.979              4.935
 Vibration     2          0.597              1.972              4.395
 Vibration     3          0.609              1.934              3.118
 Vibration     4          0.626              1.877              2.416
 Vibration     5          0.635              1.849              2.194
 Vibration     6          0.679              1.713              1.541
 Vibration     7          0.698              1.657              1.368
 Vibration     8          0.751              1.509              1.032
 Vibration     9          0.778              1.438              0.909
 Vibration    10          0.802              1.379              0.821
 Vibration    11          0.933              1.083              0.493
 Vibration    12          0.953              1.043              0.458

 Optimization completed.
    -- Stationary point found.
 Normal termination of Gaussian 09 at Tue Jan 28 04:43:29 2020.
