 Gaussian 09, Revision D.01,
 Gaussian 09:  ES64L-G09RevD.01 24-Apr-2013

 -----------------------------
 # b3lyp 6-31G(2df,p) opt Freq
 -----------------------------

 -----
 titel
 -----
 Symbolic Z-matrix:
 Charge =  0 Multiplicity = 1

 SCF Done:  E(RB3LYP) =  -423.217081067     A.U. after   14 cycles
 Optimization completed.
    -- Stationary point found.
 Normal termination of Gaussian 09 at Mon Jan 27 22:03:11 2020.

 ----------------------------------------------------------------------
 #N Geom=AllCheck Guess=TCheck SCRF=Check GenChk RB3LYP/6-31G(2df,p) Fr
 eq
 ----------------------------------------------------------------------

 Structure from the checkpoint file:  "/scratch/puck/g09_02bb55fa-7ab0-4534-b1b4-9d7221cd40d4/Gau-78538.chk"
 -----
 titel
 -----
 Charge =  0 Multiplicity = 1

                         Standard orientation:
 ---------------------------------------------------------------------
 Center     Atomic      Atomic             Coordinates (Angstroms)
 Number     Number       Type             X           Y           Z
 ---------------------------------------------------------------------
      1          6           0        2.973141   -0.872496   -0.033198
      2          6           0        1.613076   -0.251941    0.002324
      3          6           0        0.474346   -0.824209    0.398520
      4          6           0       -0.728732    0.094136    0.288457
      5          8           0       -1.520915    0.121833    1.449978
      6          6           0       -0.067552    1.476681   -0.015424
      7          6           0        1.385204    1.176926   -0.447650
      8          6           0       -1.591330   -0.354081   -0.883079
      9          8           0       -2.748427   -0.673374   -0.752054
     10          1           0        3.381815   -0.868803   -1.051730
     11          1           0        3.678118   -0.302746    0.585265
     12          1           0        2.958584   -1.904957    0.324652
     13          1           0        0.365004   -1.841825    0.756770
     14          1           0       -2.400646   -0.183894    1.176249
     15          1           0       -0.622338    2.065428   -0.752080
     16          1           0       -0.093836    2.025616    0.928625
     17          1           0        1.512998    1.261742   -1.535490
     18          1           0        2.111840    1.869306   -0.005221
     19          1           0       -1.085721   -0.377629   -1.870126
 ---------------------------------------------------------------------

 SCF Done:  E(RB3LYP) =  -423.217081067     A.U. after    1 cycles

 The electronic state is 1-A.
 Alpha  occ. eigenvalues --  -19.15660 -19.12956 -10.27730 -10.24507 -10.20019
 Alpha  occ. eigenvalues --  -10.19405 -10.19075 -10.19062 -10.18084  -1.06766
 Alpha  occ. eigenvalues --   -1.01310  -0.85225  -0.75817  -0.72057  -0.67869
 Alpha  occ. eigenvalues --   -0.62496  -0.56526  -0.53166  -0.52073  -0.49358
 Alpha  occ. eigenvalues --   -0.46307  -0.44903  -0.43205  -0.41644  -0.41138
 Alpha  occ. eigenvalues --   -0.38187  -0.37479  -0.36784  -0.35500  -0.34560
 Alpha  occ. eigenvalues --   -0.34310  -0.28423  -0.26511  -0.24192
 Alpha virt. eigenvalues --   -0.03675   0.02455   0.08426   0.10651   0.11520
 Alpha virt. eigenvalues --    0.12905   0.13414   0.14254   0.16665   0.16841
 Alpha virt. eigenvalues --    0.17201   0.19046   0.19493   0.21010   0.23118

 Mulliken charges:
               1
     1  C   -0.489716
     2  C    0.333379
     3  C   -0.246974
     4  C    0.312600
     5  O   -0.481068
     6  C   -0.289718
     7  C   -0.303111
     8  C    0.114067
     9  O   -0.278256
    10  H    0.129408
    11  H    0.131452
    12  H    0.129132
    13  H    0.099375
    14  H    0.289468
    15  H    0.103310
    16  H    0.133576
    17  H    0.109031
    18  H    0.108316
    19  H    0.095731
 Sum of Mulliken charges =   0.00000

 Dipole moment (field-independent basis, Debye):
    X=              2.6771    Y=              0.4091    Z=             -1.3534  Tot=              3.0275
 Quadrupole moment (field-independent basis, Debye-Ang):
   XX=            -56.2414   YY=            -51.6473   ZZ=            -55.4378
   XY=             -1.5241   XZ=             -0.7810   YZ=             -1.4710

  Exact polarizability: 103.260   4.580  70.476  -3.888  -2.795  64.584
 Approx polarizability: 149.350  15.442 103.560  -9.334  -5.204 100.531

                      1                      2                      3
                      A                      A                      A
 Frequencies --     77.7996                95.1028               154.8904
 Red. masses --      3.3325                 4.0658                 2.1403
 Frc consts  --      0.0119                 0.0217                 0.0303
 IR Inten    --      0.2268                 0.2808                 0.6928

                      4                      5                      6
                      A                      A                      A
 Frequencies --    184.3415               271.2716               298.5418
 Red. masses --      1.0890                 3.4470                 2.8027
 Frc consts  --      0.0218                 0.1495                 0.1472
 IR Inten    --      0.3323                 6.0590                 6.1572

                      7                      8                      9
                      A                      A                      A
 Frequencies --    336.1185               389.1975               413.8389
 Red. masses --      2.9269                 3.3595                 2.2449
 Frc consts  --      0.1948                 0.2998                 0.2265
 IR Inten    --     10.8141                 2.9741                23.8009

                     10                     11                     12
                      A                      A                      A
 Frequencies --    447.1256               503.8574               513.4635
 Red. masses --      3.5465                 1.5254                 1.9804
 Frc consts  --      0.4177                 0.2282                 0.3076
 IR Inten    --      6.2565                25.8995                18.6444

                     13                     14                     15
                      A                      A                      A
 Frequencies --    593.8877               725.3321               813.7609
 Red. masses --      3.8871                 2.2084                 2.7352
 Frc consts  --      0.8078                 0.6845                 1.0672
 IR Inten    --      2.0692                 0.3338                36.0762

                     16                     17                     18
                      A                      A                      A
 Frequencies --    845.9225               864.9327               890.9436
 Red. masses --      4.4072                 1.3690                 2.3248
 Frc consts  --      1.8581                 0.6034                 1.0873
 IR Inten    --      8.2453                 7.6565                 1.7352

                     19                     20                     21
                      A                      A                      A
 Frequencies --    934.8932               976.6760              1005.6368
 Red. masses --      1.8453                 2.3316                 2.1190
 Frc consts  --      0.9503                 1.3104                 1.2626
 IR Inten    --     13.7696                 2.0382                 2.3932

                     22                     23                     24
                      A                      A                      A
 Frequencies --   1018.2868              1028.5330              1073.9612
 Red. masses --      1.6315                 1.4367                 2.0354
 Frc consts  --      0.9967                 0.8954                 1.3832
 IR Inten    --     10.5075                 0.9211                37.8453

                     25                     26                     27
                      A                      A                      A
 Frequencies --   1127.4038              1138.8904              1190.1814
 Red. masses --      2.7860                 2.2440                 1.6876
 Frc consts  --      2.0863                 1.7149                 1.4085
 IR Inten    --      2.0694                32.0494                 8.3317

                     28                     29                     30
                      A                      A                      A
 Frequencies --   1227.1198              1251.5807              1275.9487
 Red. masses --      2.2007                 1.2466                 1.5410
 Frc consts  --      1.9525                 1.1505                 1.4782
 IR Inten    --     25.6448                 5.6448                 1.2160

                     31                     32                     33
                      A                      A                      A
 Frequencies --   1310.8266              1358.0009              1384.5663
 Red. masses --      1.7104                 1.9207                 1.1973
 Frc consts  --      1.7316                 2.0870                 1.3524
 IR Inten    --     13.0464                16.8960                62.0687

                     34                     35                     36
                      A                      A                      A
 Frequencies --   1413.9251              1433.0465              1478.5685
 Red. masses --      1.2844                 1.3981                 1.0462
 Frc consts  --      1.5128                 1.6916                 1.3476
 IR Inten    --      0.9641                50.3847                 8.9797

                     37                     38                     39
                      A                      A                      A
 Frequencies --   1481.3511              1485.8309              1499.6211
 Red. masses --      1.0768                 1.0645                 1.0984
 Frc consts  --      1.3922                 1.3847                 1.4554
 IR Inten    --      1.6493                 5.5443                 3.0673

                     40                     41                     42
                      A                      A                      A
 Frequencies --   1714.7442              1807.0731              2927.8455
 Red. masses --      7.0830                10.3809                 1.0860
 Frc consts  --     12.2707                19.9727                 5.4851
 IR Inten    --     11.2971               200.1851                61.8980

                     43                     44                     45
                      A                      A                      A
 Frequencies --   3013.8392              3020.6397              3045.5008
 Red. masses --      1.0607                 1.0414                 1.0975
 Frc consts  --      5.6767                 5.5985                 5.9975
 IR Inten    --     21.2722                42.1459                22.9555

                     46                     47                     48
                      A                      A                      A
 Frequencies --   3061.5183              3066.6172              3114.2595
 Red. masses --      1.0629                 1.0982                 1.1026
 Frc consts  --      5.8696                 6.0851                 6.3006
 IR Inten    --     26.1641                17.5227                11.9483

                     49                     50                     51
                      A                      A                      A
 Frequencies --   3117.3685              3196.6312              3683.1940
 Red. masses --      1.0992                 1.0942                 1.0646
 Frc consts  --      6.2935                 6.5876                 8.5095
 IR Inten    --     16.9096                 8.2357                79.7733

 - Thermochemistry -
 -------------------
 Temperature   298.150 Kelvin.  Pressure   1.00000 Atm.
 Atom     1 has atomic number  6 and mass  12.00000

 Molecular mass:   126.06808 amu.
 Principal axes and moments of inertia in atomic units:
                           1         2         3
     Eigenvalues --   570.286951690.151451775.08289
           X            0.99983  -0.01665  -0.00739
           Y            0.01583   0.99490  -0.09964
           Z            0.00902   0.09950   0.99500
 This molecule is an asymmetric top.
 Rotational symmetry number  1.
 Warning -- assumption of classical behavior for rotation
           may cause significant error
 Rotational temperatures (Kelvin)      0.15188     0.05125     0.04879
 Rotational constants (GHZ):           3.16462     1.06780     1.01671
 Zero-point vibrational energy     414412.8 (Joules/Mol)
                                   99.04703 (Kcal/Mol)
 Warning -- explicit consideration of  13 degrees of freedom as
           vibrations may cause significant error
 Vibrational temperatures:    111.94   136.83   222.85   265.23   390.30
          (Kelvin)            429.53   483.60   559.97   595.42   643.31
                              724.94   738.76   854.47  1043.59  1170.82
                             1217.09  1244.44  1281.87  1345.10  1405.22
                             1446.89  1465.09  1479.83  1545.19  1622.08
                             1638.61  1712.40  1765.55  1800.74  1835.80
                             1885.98  1953.86  1992.08  2034.32  2061.83
                             2127.33  2131.33  2137.78  2157.62  2467.13
                             2599.97  4212.51  4336.24  4346.02  4381.79
                             4404.84  4412.17  4480.72  4485.19  4599.23
                             5299.29

 Zero-point correction=                           0.157841 (Hartree/Particle)
 Thermal correction to Energy=                    0.166901
 Thermal correction to Enthalpy=                  0.167845
 Thermal correction to Gibbs Free Energy=         0.123969
 Sum of electronic and zero-point Energies=           -423.059240
 Sum of electronic and thermal Energies=              -423.050180
 Sum of electronic and thermal Enthalpies=            -423.049236
 Sum of electronic and thermal Free Energies=         -423.093112

                     E (Thermal)             CV                S
                      KCal/Mol        Cal/Mol-Kelvin    Cal/Mol-Kelvin
 Total                  104.732             33.922             92.345
 Electronic               0.000              0.000              0.000
 Translational            0.889              2.981             40.409
 Rotational               0.889              2.981             28.927
 Vibrational            102.955             27.960             23.009
 Vibration     1          0.599              1.964              3.946
 Vibration     2          0.603              1.953              3.552
 Vibration     3          0.620              1.897              2.611
 Vibration     4          0.631              1.861              2.284
 Vibration     5          0.675              1.726              1.588
 Vibration     6          0.692              1.676              1.425
 Vibration     7          0.717              1.603              1.231
 Vibration     8          0.757              1.493              1.003
 Vibration     9          0.777              1.440              0.913
 Vibration    10          0.806              1.367              0.805
 Vibration    11          0.859              1.241              0.649
 Vibration    12          0.869              1.220              0.625
 Vibration    13          0.952              1.045              0.460

 Optimization completed.
    -- Stationary point found.
 Normal termination of Gaussian 09 at Mon Jan 27 22:48:12 2020.
