 Gaussian 09, Revision D.01,
 Gaussian 09:  ES64L-G09RevD.01 24-Apr-2013

 -----------------------------
 # b3lyp 6-31G(2df,p) opt Freq
 -----------------------------

 -----
 titel
 -----
 Symbolic Z-matrix:
 Charge =  0 Multiplicity = 1

 SCF Done:  E(RB3LYP) =  -423.116405447     A.U. after   14 cycles
 Optimization completed.
    -- Stationary point found.
 Normal termination of Gaussian 09 at Tue Jan 28 01:55:21 2020.

 ----------------------------------------------------------------------
 #N Geom=AllCheck Guess=TCheck SCRF=Check GenChk RB3LYP/6-31G(2df,p) Fr
 eq
 ----------------------------------------------------------------------

 Structure from the checkpoint file:  "/scratch/puck/g09_6aac0bc3-b5b0-4744-973c-7e66eb603ac4/Gau-169870.chk"
 -----
 titel
 -----
 Charge =  0 Multiplicity = 1

                         Standard orientation:
 ---------------------------------------------------------------------
 Center     Atomic      Atomic             Coordinates (Angstroms)
 Number     Number       Type             X           Y           Z
 ---------------------------------------------------------------------
      1          6           0       -2.813194   -0.273162   -0.415556
      2          6           0       -1.579818    0.570935   -0.231539
      3          8           0       -1.067839    0.675876    1.133581
      4          6           0       -0.288511    0.028794    0.155535
      5          6           0        0.387797   -1.347764    0.234774
      6          6           0        1.130027   -0.938971   -1.079923
      7          6           0        1.187265    0.318238   -0.176811
      8          8           0        1.773801    1.510394   -0.539697
      9          6           0        1.538291   -0.640162    1.018954
     10          1           0       -3.698763    0.251435   -0.041948
     11          1           0       -2.973527   -0.486805   -1.478014
     12          1           0       -2.721184   -1.220504    0.121364
     13          1           0       -1.588347    1.530189   -0.752326
     14          1           0       -0.065480   -2.308199    0.461854
     15          1           0        2.084540   -1.439938   -1.253670
     16          1           0        0.531039   -0.867188   -1.990760
     17          1           0        1.596433    2.153392    0.156598
     18          1           0        2.517249   -1.122838    0.969127
     19          1           0        1.299200   -0.287154    2.024096
 ---------------------------------------------------------------------

 SCF Done:  E(RB3LYP) =  -423.116405447     A.U. after    1 cycles

 The electronic state is 1-A.
 Alpha  occ. eigenvalues --  -19.15074 -19.14423 -10.24882 -10.23754 -10.23542
 Alpha  occ. eigenvalues --  -10.20474 -10.19204 -10.18802 -10.18398  -1.06694
 Alpha  occ. eigenvalues --   -1.03628  -0.90662  -0.74689  -0.67292  -0.64526
 Alpha  occ. eigenvalues --   -0.62822  -0.60235  -0.54380  -0.52691  -0.48608
 Alpha  occ. eigenvalues --   -0.46109  -0.43637  -0.43089  -0.41631  -0.39224
 Alpha  occ. eigenvalues --   -0.38266  -0.36772  -0.34412  -0.34304  -0.33046
 Alpha  occ. eigenvalues --   -0.31613  -0.29082  -0.27382  -0.24377
 Alpha virt. eigenvalues --    0.07547   0.10023   0.11070   0.12227   0.12775
 Alpha virt. eigenvalues --    0.13356   0.14603   0.15571   0.15798   0.16063
 Alpha virt. eigenvalues --    0.17237   0.17618   0.18672   0.20198   0.22169

 Mulliken charges:
               1
     1  C   -0.413937
     2  C   -0.091518
     3  O   -0.339317
     4  C    0.476358
     5  C   -0.169309
     6  C   -0.258521
     7  C    0.305037
     8  O   -0.470964
     9  C   -0.297529
    10  H    0.130224
    11  H    0.123743
    12  H    0.126330
    13  H    0.094902
    14  H    0.089952
    15  H    0.101162
    16  H    0.097926
    17  H    0.291057
    18  H    0.095621
    19  H    0.108782
 Sum of Mulliken charges =   0.00000

 Dipole moment (field-independent basis, Debye):
    X=             -0.5069    Y=             -0.5501    Z=             -0.4618  Tot=              0.8791
 Quadrupole moment (field-independent basis, Debye-Ang):
   XX=            -52.8413   YY=            -50.3003   ZZ=            -55.5190
   XY=             -0.3827   XZ=              4.8020   YZ=              1.0676

  Exact polarizability:  87.512  -3.729  71.733   3.748   0.423  68.907
 Approx polarizability: 114.033  -4.036 107.984   2.439   1.432 109.777

                      1                      2                      3
                      A                      A                      A
 Frequencies --    134.2999               151.1334               177.5746
 Red. masses --      3.4048                 2.8354                 1.5129
 Frc consts  --      0.0362                 0.0382                 0.0281
 IR Inten    --      0.5392                 3.8411                 5.9664

                      4                      5                      6
                      A                      A                      A
 Frequencies --    210.5991               256.9839               300.0680
 Red. masses --      1.6449                 1.9537                 1.7189
 Frc consts  --      0.0430                 0.0760                 0.0912
 IR Inten    --      6.4744                30.4427                67.8160

                      7                      8                      9
                      A                      A                      A
 Frequencies --    375.1403               447.4095               476.8340
 Red. masses --      3.4605                 3.2526                 2.5960
 Frc consts  --      0.2869                 0.3836                 0.3478
 IR Inten    --     11.1860                 2.0971                 5.0494

                     10                     11                     12
                      A                      A                      A
 Frequencies --    507.0670               620.2845               644.3517
 Red. masses --      3.6289                 3.2610                 2.9719
 Frc consts  --      0.5497                 0.7392                 0.7270
 IR Inten    --      2.5063                10.8155                10.7072

                     13                     14                     15
                      A                      A                      A
 Frequencies --    685.9378               786.5977               806.7786
 Red. masses --      3.9708                 3.8548                 3.2292
 Frc consts  --      1.1008                 1.4053                 1.2384
 IR Inten    --      4.7620                11.0868                 8.4198

                     16                     17                     18
                      A                      A                      A
 Frequencies --    811.3849               936.5648               943.1369
 Red. masses --      2.8507                 1.9095                 2.0854
 Frc consts  --      1.1057                 0.9868                 1.0929
 IR Inten    --     10.1395                 3.8504                 5.0406

                     19                     20                     21
                      A                      A                      A
 Frequencies --    950.8625               965.1509              1011.1119
 Red. masses --      1.9443                 1.8979                 2.1163
 Frc consts  --      1.0357                 1.0416                 1.2748
 IR Inten    --     13.2542                11.0616                33.9909

                     22                     23                     24
                      A                      A                      A
 Frequencies --   1031.7070              1037.1268              1073.5561
 Red. masses --      1.1634                 1.6074                 2.0873
 Frc consts  --      0.7296                 1.0187                 1.4174
 IR Inten    --      3.8417                 0.5476                16.7353

                     25                     26                     27
                      A                      A                      A
 Frequencies --   1104.3104              1107.5973              1126.7832
 Red. masses --      1.6802                 1.4655                 2.1342
 Frc consts  --      1.2072                 1.0593                 1.5965
 IR Inten    --      6.6291                24.7129                 0.5491

                     28                     29                     30
                      A                      A                      A
 Frequencies --   1153.7451              1178.0539              1191.7730
 Red. masses --      1.4645                 1.7260                 1.6419
 Frc consts  --      1.1486                 1.4113                 1.3740
 IR Inten    --      8.0514                11.8666                 6.8160

                     31                     32                     33
                      A                      A                      A
 Frequencies --   1203.6237              1225.4376              1303.5117
 Red. masses --      1.7659                 1.8004                 2.3023
 Frc consts  --      1.5073                 1.5929                 2.3048
 IR Inten    --      1.4985                 0.8600               224.7332

                     34                     35                     36
                      A                      A                      A
 Frequencies --   1353.6929              1384.9740              1409.0499
 Red. masses --      1.3342                 2.3772                 1.2715
 Frc consts  --      1.4405                 2.6866                 1.4873
 IR Inten    --     18.4578                24.9066                 4.9272

                     37                     38                     39
                      A                      A                      A
 Frequencies --   1477.3668              1489.0026              1491.6912
 Red. masses --      1.1027                 1.0937                 1.0613
 Frc consts  --      1.4180                 1.4287                 1.3914
 IR Inten    --      0.6708                 0.1530                 5.6026

                     40                     41                     42
                      A                      A                      A
 Frequencies --   1521.5410              1573.7010              3036.5073
 Red. masses --      1.3563                 3.3392                 1.0359
 Frc consts  --      1.8501                 4.8724                 5.6273
 IR Inten    --      1.7833                39.1468                19.9672

                     43                     44                     45
                      A                      A                      A
 Frequencies --   3061.9885              3064.7134              3091.9313
 Red. masses --      1.0536                 1.0543                 1.0871
 Frc consts  --      5.8203                 5.8344                 6.1231
 IR Inten    --     47.0551                23.6406                15.7643

                     46                     47                     48
                      A                      A                      A
 Frequencies --   3099.9392              3126.9797              3133.0017
 Red. masses --      1.1006                 1.1009                 1.1122
 Frc consts  --      6.2315                 6.3422                 6.4321
 IR Inten    --     17.8365                24.4906                22.0518

                     49                     50                     51
                      A                      A                      A
 Frequencies --   3136.5900              3164.6822              3799.5235
 Red. masses --      1.1117                 1.0937                 1.0656
 Frc consts  --      6.4443                 6.4535                 9.0634
 IR Inten    --     33.1020                21.8211                32.1173

 - Thermochemistry -
 -------------------
 Temperature   298.150 Kelvin.  Pressure   1.00000 Atm.
 Atom     1 has atomic number  6 and mass  12.00000

 Molecular mass:   126.06808 amu.
 Principal axes and moments of inertia in atomic units:
                           1         2         3
     Eigenvalues --   623.381011336.466771465.97253
           X            0.99953  -0.00830   0.02962
           Y            0.00786   0.99986   0.01502
           Z           -0.02974  -0.01478   0.99945
 This molecule is an asymmetric top.
 Rotational symmetry number  1.
 Warning -- assumption of classical behavior for rotation
           may cause significant error
 Rotational temperatures (Kelvin)      0.13894     0.06481     0.05908
 Rotational constants (GHZ):           2.89509     1.35038     1.23109
 Zero-point vibrational energy     414825.3 (Joules/Mol)
                                   99.14562 (Kcal/Mol)
 Warning -- explicit consideration of  11 degrees of freedom as
           vibrations may cause significant error
 Vibrational temperatures:    193.23   217.45   255.49   303.00   369.74
          (Kelvin)            431.73   539.74   643.72   686.06   729.56
                              892.45   927.08   986.91  1131.74  1160.77
                             1167.40  1347.51  1356.96  1368.08  1388.64
                             1454.76  1484.39  1492.19  1544.61  1588.85
                             1593.58  1621.19  1659.98  1694.95  1714.69
                             1731.74  1763.13  1875.46  1947.66  1992.67
                             2027.31  2125.60  2142.34  2146.21  2189.16
                             2264.20  4368.85  4405.51  4409.43  4448.59
                             4460.12  4499.02  4507.68  4512.85  4553.27
                             5466.66

 Zero-point correction=                           0.157999 (Hartree/Particle)
 Thermal correction to Energy=                    0.166406
 Thermal correction to Enthalpy=                  0.167350
 Thermal correction to Gibbs Free Energy=         0.125391
 Sum of electronic and zero-point Energies=           -422.958407
 Sum of electronic and thermal Energies=              -422.950000
 Sum of electronic and thermal Enthalpies=            -422.949056
 Sum of electronic and thermal Free Energies=         -422.991014

                     E (Thermal)             CV                S
                      KCal/Mol        Cal/Mol-Kelvin    Cal/Mol-Kelvin
 Total                  104.421             32.869             88.309
 Electronic               0.000              0.000              0.000
 Translational            0.889              2.981             40.409
 Rotational               0.889              2.981             28.592
 Vibrational            102.644             26.907             19.308
 Vibration     1          0.613              1.919              2.884
 Vibration     2          0.619              1.901              2.658
 Vibration     3          0.628              1.870              2.354
 Vibration     4          0.643              1.825              2.038
 Vibration     5          0.667              1.751              1.682
 Vibration     6          0.693              1.674              1.417
 Vibration     7          0.746              1.523              1.059
 Vibration     8          0.807              1.367              0.804
 Vibration     9          0.833              1.301              0.719
 Vibration    10          0.862              1.234              0.641
 Vibration    11          0.980              0.989              0.416

 Optimization completed.
    -- Stationary point found.
 Normal termination of Gaussian 09 at Tue Jan 28 02:30:14 2020.
