 Gaussian 09, Revision D.01,
 Gaussian 09:  ES64L-G09RevD.01 24-Apr-2013

 -----------------------------
 # b3lyp 6-31G(2df,p) opt Freq
 -----------------------------

 -----
 titel
 -----
 Symbolic Z-matrix:
 Charge =  0 Multiplicity = 1

 SCF Done:  E(RB3LYP) =  -423.117906030     A.U. after   12 cycles
 Optimization completed.
    -- Stationary point found.
 Normal termination of Gaussian 09 at Tue Jan 28 12:46:54 2020.

 ----------------------------------------------------------------------
 #N Geom=AllCheck Guess=TCheck SCRF=Check GenChk RB3LYP/6-31G(2df,p) Fr
 eq
 ----------------------------------------------------------------------

 Structure from the checkpoint file:  "/scratch/puck/g09_1f9550f1-c4d9-4eac-a16b-0cfb4c387914/Gau-10919.chk"
 -----
 titel
 -----
 Charge =  0 Multiplicity = 1

                         Standard orientation:
 ---------------------------------------------------------------------
 Center     Atomic      Atomic             Coordinates (Angstroms)
 Number     Number       Type             X           Y           Z
 ---------------------------------------------------------------------
      1          8           0        3.232298   -0.038992   -0.286700
      2          6           0        2.102323   -0.645352    0.324609
      3          6           0        0.799734   -0.334961   -0.400421
      4          6           0        0.307155    1.104101   -0.196783
      5          6           0       -1.219887    1.094157   -0.309862
      6          6           0       -0.537934    0.717420    0.993129
      7          6           0       -0.473188   -0.750731    0.389852
      8          6           0       -1.647461   -0.353278   -0.551838
      9          8           0       -2.933237   -0.661503   -0.063729
     10          1           0        3.134454    0.914543   -0.202919
     11          1           0        2.294370   -1.723351    0.292573
     12          1           0        2.016887   -0.357185    1.384903
     13          1           0        0.864521   -0.696975   -1.434432
     14          1           0        0.853196    2.029165   -0.345923
     15          1           0       -1.774368    1.995568   -0.541108
     16          1           0       -0.601443    1.124724    1.991307
     17          1           0       -0.519744   -1.687632    0.943304
     18          1           0       -1.616554   -0.749901   -1.572134
     19          1           0       -3.028265   -0.233134    0.795749
 ---------------------------------------------------------------------

 SCF Done:  E(RB3LYP) =  -423.117906030     A.U. after    1 cycles

 The electronic state is 1-A.
 Alpha  occ. eigenvalues --  -19.13586 -19.13316 -10.23457 -10.22462 -10.20242
 Alpha  occ. eigenvalues --  -10.20094 -10.19696 -10.19674 -10.19165  -1.02266
 Alpha  occ. eigenvalues --   -1.01377  -0.93026  -0.74994  -0.70610  -0.65122
 Alpha  occ. eigenvalues --   -0.63038  -0.56676  -0.53346  -0.52653  -0.50452
 Alpha  occ. eigenvalues --   -0.47783  -0.45501  -0.44841  -0.41738  -0.40137
 Alpha  occ. eigenvalues --   -0.36950  -0.36187  -0.34071  -0.32800  -0.31582
 Alpha  occ. eigenvalues --   -0.29009  -0.27208  -0.26326  -0.24462
 Alpha virt. eigenvalues --    0.06609   0.08222   0.09629   0.10337   0.11500
 Alpha virt. eigenvalues --    0.12596   0.13241   0.15192   0.16025   0.16982
 Alpha virt. eigenvalues --    0.17389   0.18629   0.20235   0.20568   0.21954

 Mulliken charges:
               1
     1  O   -0.423163
     2  C   -0.081951
     3  C   -0.021801
     4  C   -0.074701
     5  C   -0.127937
     6  C   -0.109775
     7  C   -0.119204
     8  C    0.157929
     9  O   -0.448463
    10  H    0.282672
    11  H    0.108541
    12  H    0.084403
    13  H    0.071624
    14  H    0.081609
    15  H    0.091530
    16  H    0.093324
    17  H    0.074221
    18  H    0.083604
    19  H    0.277537
 Sum of Mulliken charges =   0.00000

 Dipole moment (field-independent basis, Debye):
    X=             -0.2267    Y=              1.7880    Z=              1.4570  Tot=              2.3176
 Quadrupole moment (field-independent basis, Debye-Ang):
   XX=            -64.4418   YY=            -50.0836   ZZ=            -51.6294
   XY=             -0.0664   XZ=             -1.4538   YZ=             -0.1685

  Exact polarizability:  85.382  -0.462  71.476  -1.144   0.182  65.954
 Approx polarizability: 114.466   1.342 108.110  -3.434   0.002 106.949

                      1                      2                      3
                      A                      A                      A
 Frequencies --     92.6150               145.8377               212.9535
 Red. masses --      3.8546                 4.7011                 2.2392
 Frc consts  --      0.0195                 0.0589                 0.0598
 IR Inten    --      1.3769                 1.6151                 9.8465

                      4                      5                      6
                      A                      A                      A
 Frequencies --    241.4443               293.0188               311.9365
 Red. masses --      2.4899                 1.4030                 1.8271
 Frc consts  --      0.0855                 0.0710                 0.1047
 IR Inten    --      9.0525                68.7093                58.4543

                      7                      8                      9
                      A                      A                      A
 Frequencies --    355.4421               404.4392               522.1801
 Red. masses --      1.9394                 3.2307                 4.3237
 Frc consts  --      0.1444                 0.3114                 0.6946
 IR Inten    --     32.0967                19.6176                 6.0950

                     10                     11                     12
                      A                      A                      A
 Frequencies --    552.4487               768.4131               778.4796
 Red. masses --      3.1544                 3.0276                 2.0064
 Frc consts  --      0.5672                 1.0533                 0.7164
 IR Inten    --      1.1604                 2.2506                14.5143

                     13                     14                     15
                      A                      A                      A
 Frequencies --    788.8542               826.4177               837.8559
 Red. masses --      1.3796                 2.7428                 1.7293
 Frc consts  --      0.5058                 1.1037                 0.7153
 IR Inten    --     12.5085                 6.7984                 8.0847

                     16                     17                     18
                      A                      A                      A
 Frequencies --    884.4822               927.7725               940.1651
 Red. masses --      2.3386                 2.5403                 2.3220
 Frc consts  --      1.0779                 1.2883                 1.2093
 IR Inten    --      7.2541                 5.1482                 4.9550

                     19                     20                     21
                      A                      A                      A
 Frequencies --    957.1540              1004.3220              1014.6360
 Red. masses --      1.7430                 2.1949                 1.9704
 Frc consts  --      0.9408                 1.3044                 1.1952
 IR Inten    --      0.7603                 7.1781                52.1153

                     22                     23                     24
                      A                      A                      A
 Frequencies --   1031.9991              1040.4845              1057.8111
 Red. masses --      1.6704                 1.9047                 1.8810
 Frc consts  --      1.0482                 1.2149                 1.2401
 IR Inten    --      1.6132                45.7446                36.6042

                     25                     26                     27
                      A                      A                      A
 Frequencies --   1080.8209              1081.6646              1127.9932
 Red. masses --      2.0882                 3.1261                 2.6274
 Frc consts  --      1.4372                 2.1549                 1.9697
 IR Inten    --     20.8245                 6.4728                94.3787

                     28                     29                     30
                      A                      A                      A
 Frequencies --   1164.1821              1172.4632              1177.3191
 Red. masses --      1.9894                 1.4764                 1.3891
 Frc consts  --      1.5886                 1.1958                 1.1344
 IR Inten    --     14.1696                15.8161                 2.4887

                     31                     32                     33
                      A                      A                      A
 Frequencies --   1202.0240              1248.2292              1265.2474
 Red. masses --      1.3520                 1.5542                 1.4828
 Frc consts  --      1.1509                 1.4267                 1.3985
 IR Inten    --     15.9270                 5.5030                 5.1474

                     34                     35                     36
                      A                      A                      A
 Frequencies --   1283.5470              1296.7238              1352.0157
 Red. masses --      1.5101                 1.6108                 2.4483
 Frc consts  --      1.4659                 1.5959                 2.6368
 IR Inten    --     12.6993                 1.0871                 1.3769

                     37                     38                     39
                      A                      A                      A
 Frequencies --   1363.0506              1398.4308              1421.6726
 Red. masses --      1.6716                 1.2656                 1.3341
 Frc consts  --      1.8298                 1.4582                 1.5887
 IR Inten    --      1.5026                15.7560                39.5636

                     40                     41                     42
                      A                      A                      A
 Frequencies --   1434.1711              1499.2129              2975.7593
 Red. masses --      1.2882                 1.0867                 1.0691
 Frc consts  --      1.5611                 1.4391                 5.5776
 IR Inten    --    103.7392                 1.6887                39.0229

                     43                     44                     45
                      A                      A                      A
 Frequencies --   3026.6521              3058.9695              3070.2153
 Red. masses --      1.0829                 1.0856                 1.0940
 Frc consts  --      5.8446                 5.9851                 6.0761
 IR Inten    --     32.7359                53.1484                45.2267

                     46                     47                     48
                      A                      A                      A
 Frequencies --   3129.8258              3169.8427              3191.6708
 Red. masses --      1.0908                 1.0908                 1.0917
 Frc consts  --      6.2958                 6.4575                 6.5522
 IR Inten    --     24.7591                17.4175                17.1765

                     49                     50                     51
                      A                      A                      A
 Frequencies --   3224.1388              3779.8716              3820.5842
 Red. masses --      1.0993                 1.0651                 1.0661
 Frc consts  --      6.7326                 8.9655                 9.1684
 IR Inten    --      7.4384                 9.5624                11.3679

 - Thermochemistry -
 -------------------
 Temperature   298.150 Kelvin.  Pressure   1.00000 Atm.
 Atom     1 has atomic number  8 and mass  15.99491

 Molecular mass:   126.06808 amu.
 Principal axes and moments of inertia in atomic units:
                           1         2         3
     Eigenvalues --   393.624971770.121961906.24508
           X            0.99998  -0.00535   0.00170
           Y            0.00536   0.99995  -0.00839
           Z           -0.00166   0.00839   0.99996
 This molecule is an asymmetric top.
 Rotational symmetry number  1.
 Rotational temperatures (Kelvin)      0.22004     0.04893     0.04544
 Rotational constants (GHZ):           4.58493     1.01956     0.94675
 Zero-point vibrational energy     418737.6 (Joules/Mol)
                                  100.08069 (Kcal/Mol)
 Warning -- explicit consideration of  10 degrees of freedom as
           vibrations may cause significant error
 Vibrational temperatures:    133.25   209.83   306.39   347.38   421.59
          (Kelvin)            448.81   511.40   581.90   751.30   794.85
                             1105.57  1120.06  1134.98  1189.03  1205.49
                             1272.57  1334.86  1352.69  1377.13  1444.99
                             1459.83  1484.81  1497.02  1521.95  1555.06
                             1556.27  1622.93  1675.00  1686.91  1693.90
                             1729.44  1795.92  1820.41  1846.74  1865.69
                             1945.25  1961.12  2012.03  2045.47  2063.45
                             2157.03  4281.45  4354.67  4401.17  4417.35
                             4503.12  4560.69  4592.10  4638.81  5438.39
                             5496.96

 Zero-point correction=                           0.159489 (Hartree/Particle)
 Thermal correction to Energy=                    0.167648
 Thermal correction to Enthalpy=                  0.168592
 Thermal correction to Gibbs Free Energy=         0.126863
 Sum of electronic and zero-point Energies=           -422.958417
 Sum of electronic and thermal Energies=              -422.950258
 Sum of electronic and thermal Enthalpies=            -422.949314
 Sum of electronic and thermal Free Energies=         -422.991043

                     E (Thermal)             CV                S
                      KCal/Mol        Cal/Mol-Kelvin    Cal/Mol-Kelvin
 Total                  105.200             31.960             87.825
 Electronic               0.000              0.000              0.000
 Translational            0.889              2.981             40.409
 Rotational               0.889              2.981             28.676
 Vibrational            103.423             25.999             18.741
 Vibration     1          0.602              1.954              3.604
 Vibration     2          0.617              1.907              2.726
 Vibration     3          0.644              1.821              2.018
 Vibration     4          0.658              1.777              1.792
 Vibration     5          0.688              1.687              1.456
 Vibration     6          0.700              1.651              1.352
 Vibration     7          0.731              1.564              1.142
 Vibration     8          0.770              1.461              0.946
 Vibration     9          0.877              1.201              0.605
 Vibration    10          0.908              1.134              0.539

 Normal termination of Gaussian 09 at Tue Jan 28 14:46:23 2020.
