 Gaussian 09, Revision D.01,
 Gaussian 09:  ES64L-G09RevD.01 24-Apr-2013

 -----------------------------
 # b3lyp 6-31G(2df,p) opt Freq
 -----------------------------

 -----
 titel
 -----
 Symbolic Z-matrix:
 Charge =  0 Multiplicity = 1

 SCF Done:  E(RB3LYP) =  -423.149801399     A.U. after   14 cycles
 Optimization completed.
    -- Stationary point found.
 Normal termination of Gaussian 09 at Mon Jan 27 17:58:04 2020.

 ----------------------------------------------------------------------
 #N Geom=AllCheck Guess=TCheck SCRF=Check GenChk RB3LYP/6-31G(2df,p) Fr
 eq
 ----------------------------------------------------------------------

 Structure from the checkpoint file:  "/scratch/puck/g09_6f7507ae-1486-4a9c-83ce-37a413490e24/Gau-51879.chk"
 -----
 titel
 -----
 Charge =  0 Multiplicity = 1

                         Standard orientation:
 ---------------------------------------------------------------------
 Center     Atomic      Atomic             Coordinates (Angstroms)
 Number     Number       Type             X           Y           Z
 ---------------------------------------------------------------------
      1          6           0       -0.272659    2.133916   -0.482260
      2          6           0       -0.429933    0.716515    0.007756
      3          6           0       -1.471342    0.370090    1.072796
      4          6           0       -1.593621   -0.179727   -0.321023
      5          8           0       -1.174163   -1.499984   -0.565334
      6          6           0        0.159172   -1.640358   -0.090265
      7          6           0        0.745857   -0.225961    0.005962
      8          6           0        2.086823    0.119205   -0.478214
      9          8           0        1.825258   -0.044305    0.922699
     10          1           0        0.090287    2.166870   -1.515293
     11          1           0       -1.228126    2.665760   -0.447137
     12          1           0        0.434556    2.688596    0.145296
     13          1           0       -1.197815   -0.295729    1.884017
     14          1           0       -2.152904    1.165439    1.355923
     15          1           0       -2.409799    0.113668   -0.971211
     16          1           0        0.180813   -2.104950    0.905790
     17          1           0        0.704194   -2.290346   -0.780811
     18          1           0        2.708134   -0.653106   -0.931522
     19          1           0        2.316119    1.136027   -0.792483
 ---------------------------------------------------------------------

 SCF Done:  E(RB3LYP) =  -423.149801399     A.U. after    1 cycles

 The electronic state is 1-A.
 Alpha  occ. eigenvalues --  -19.15170 -19.14558 -10.24654 -10.23785 -10.23550
 Alpha  occ. eigenvalues --  -10.23225 -10.20167 -10.18697 -10.18659  -1.07439
 Alpha  occ. eigenvalues --   -1.04563  -0.85936  -0.74224  -0.71580  -0.66677
 Alpha  occ. eigenvalues --   -0.63374  -0.58451  -0.55468  -0.51398  -0.48974
 Alpha  occ. eigenvalues --   -0.47065  -0.45534  -0.42977  -0.42227  -0.41280
 Alpha  occ. eigenvalues --   -0.40347  -0.39098  -0.35935  -0.35220  -0.34228
 Alpha  occ. eigenvalues --   -0.31231  -0.27445  -0.26375  -0.23356
 Alpha virt. eigenvalues --    0.07848   0.08598   0.09587   0.10789   0.11669
 Alpha virt. eigenvalues --    0.12897   0.14143   0.14755   0.15431   0.16866
 Alpha virt. eigenvalues --    0.17839   0.18117   0.19418   0.21236   0.22794

 Mulliken charges:
               1
     1  C   -0.502039
     2  C    0.228362
     3  C   -0.373830
     4  C    0.080091
     5  O   -0.260429
     6  C   -0.177658
     7  C    0.362930
     8  C   -0.251375
     9  O   -0.281323
    10  H    0.120477
    11  H    0.118075
    12  H    0.131670
    13  H    0.125701
    14  H    0.114674
    15  H    0.104469
    16  H    0.115039
    17  H    0.115946
    18  H    0.113065
    19  H    0.116156
 Sum of Mulliken charges =   0.00000

 Dipole moment (field-independent basis, Debye):
    X=             -0.0223    Y=              1.1123    Z=             -1.0837  Tot=              1.5531
 Quadrupole moment (field-independent basis, Debye-Ang):
   XX=            -53.4011   YY=            -52.5799   ZZ=            -54.3515
   XY=             -3.7851   XZ=             -4.5327   YZ=             -1.5044

  Exact polarizability:  81.962  -2.151  76.147  -5.920  -1.109  64.639
 Approx polarizability: 115.360   0.430 104.351  -4.201   0.394 103.966

                      1                      2                      3
                      A                      A                      A
 Frequencies --     92.6378               209.3381               216.2163
 Red. masses --      3.0528                 1.8182                 2.1866
 Frc consts  --      0.0154                 0.0469                 0.0602
 IR Inten    --      2.4876                 0.9623                 2.8314

                      4                      5                      6
                      A                      A                      A
 Frequencies --    239.2885               274.8810               340.3005
 Red. masses --      2.0491                 2.2805                 2.4738
 Frc consts  --      0.0691                 0.1015                 0.1688
 IR Inten    --      1.7447                 0.9914                 3.0131

                      7                      8                      9
                      A                      A                      A
 Frequencies --    380.4658               441.9155               484.2276
 Red. masses --      2.9574                 2.6189                 2.8157
 Frc consts  --      0.2522                 0.3013                 0.3890
 IR Inten    --      3.2417                 0.5556                 5.4297

                     10                     11                     12
                      A                      A                      A
 Frequencies --    538.7811               621.6128               691.4140
 Red. masses --      5.7878                 3.4800                 4.1062
 Frc consts  --      0.9899                 0.7923                 1.1565
 IR Inten    --      5.3382                 1.2769                 4.6981

                     13                     14                     15
                      A                      A                      A
 Frequencies --    802.7712               836.0565               858.9616
 Red. masses --      2.3882                 2.2299                 3.0379
 Frc consts  --      0.9068                 0.9183                 1.3206
 IR Inten    --     19.6717                16.1576                14.9170

                     16                     17                     18
                      A                      A                      A
 Frequencies --    888.9075               922.4915               943.5649
 Red. masses --      2.8703                 1.4097                 2.9013
 Frc consts  --      1.3363                 0.7068                 1.5219
 IR Inten    --     20.6652                 1.9749                25.6560

                     19                     20                     21
                      A                      A                      A
 Frequencies --    967.8766              1010.8500              1032.1360
 Red. masses --      1.4660                 2.2119                 1.4142
 Frc consts  --      0.8091                 1.3317                 0.8876
 IR Inten    --      3.5247                 9.9957                13.0773

                     22                     23                     24
                      A                      A                      A
 Frequencies --   1044.2196              1075.6952              1098.9234
 Red. masses --      1.9439                 2.5800                 1.7859
 Frc consts  --      1.2489                 1.7589                 1.2707
 IR Inten    --      6.1390                16.2179                11.5169

                     25                     26                     27
                      A                      A                      A
 Frequencies --   1123.7146              1130.7469              1150.8192
 Red. masses --      1.5349                 1.5012                 2.7370
 Frc consts  --      1.1420                 1.1309                 2.1357
 IR Inten    --      1.2337                 1.3526                23.1328

                     28                     29                     30
                      A                      A                      A
 Frequencies --   1158.5404              1179.6826              1221.1840
 Red. masses --      1.8451                 1.9353                 1.1412
 Frc consts  --      1.4591                 1.5868                 1.0027
 IR Inten    --     38.1861                31.5152                 4.4859

                     31                     32                     33
                      A                      A                      A
 Frequencies --   1281.9222              1311.9181              1352.4277
 Red. masses --      1.8650                 2.2374                 1.6965
 Frc consts  --      1.8057                 2.2689                 1.8282
 IR Inten    --      1.1588                 1.6508                 7.5700

                     34                     35                     36
                      A                      A                      A
 Frequencies --   1400.8678              1419.3729              1430.5079
 Red. masses --      1.5951                 1.5926                 2.0459
 Frc consts  --      1.8443                 1.8903                 2.4667
 IR Inten    --     13.6514                 1.5135                 9.6485

                     37                     38                     39
                      A                      A                      A
 Frequencies --   1484.5224              1490.8030              1504.7179
 Red. masses --      1.3542                 1.0637                 1.0791
 Frc consts  --      1.7583                 1.3929                 1.4396
 IR Inten    --     10.0862                 7.1642                 8.4591

                     40                     41                     42
                      A                      A                      A
 Frequencies --   1518.2542              1533.8305              3005.9891
 Red. masses --      1.0927                 1.4067                 1.0678
 Frc consts  --      1.4840                 1.9499                 5.6850
 IR Inten    --      1.5418                 6.3195                38.8946

                     43                     44                     45
                      A                      A                      A
 Frequencies --   3026.1326              3078.6878              3081.2068
 Red. masses --      1.0358                 1.0665                 1.0809
 Frc consts  --      5.5887                 5.9560                 6.0459
 IR Inten    --     26.9169                 7.5357                40.2396

                     46                     47                     48
                      A                      A                      A
 Frequencies --   3088.5986              3102.5400              3132.8037
 Red. masses --      1.1003                 1.1004                 1.0542
 Frc consts  --      6.1845                 6.2407                 6.0959
 IR Inten    --     22.5808                22.2353                 9.2876

                     49                     50                     51
                      A                      A                      A
 Frequencies --   3165.9594              3180.6371              3220.4938
 Red. masses --      1.1185                 1.0929                 1.1165
 Frc consts  --      6.6054                 6.5142                 6.8224
 IR Inten    --     22.6844                16.3258                 7.2862

 - Thermochemistry -
 -------------------
 Temperature   298.150 Kelvin.  Pressure   1.00000 Atm.
 Atom     1 has atomic number  6 and mass  12.00000

 Molecular mass:   126.06808 amu.
 Principal axes and moments of inertia in atomic units:
                           1         2         3
     Eigenvalues --   765.40197 974.406771376.44222
           X            0.99448  -0.09691  -0.04029
           Y            0.09575   0.99496  -0.02980
           Z            0.04298   0.02577   0.99874
 This molecule is an asymmetric top.
 Rotational symmetry number  1.
 Warning -- assumption of classical behavior for rotation
           may cause significant error
 Rotational temperatures (Kelvin)      0.11316     0.08889     0.06293
 Rotational constants (GHZ):           2.35790     1.85214     1.31116
 Zero-point vibrational energy     417439.4 (Joules/Mol)
                                   99.77041 (Kcal/Mol)
 Warning -- explicit consideration of  10 degrees of freedom as
           vibrations may cause significant error
 Vibrational temperatures:    133.28   301.19   311.09   344.28   395.49
          (Kelvin)            489.62   547.40   635.82   696.69   775.18
                              894.36   994.79  1155.01  1202.90  1235.85
                             1278.94  1327.26  1357.58  1392.56  1454.39
                             1485.01  1502.40  1547.68  1581.10  1616.77
                             1626.89  1655.77  1666.88  1697.30  1757.01
                             1844.40  1887.56  1945.84  2015.53  2042.16
                             2058.18  2135.89  2144.93  2164.95  2184.43
                             2206.84  4324.94  4353.92  4429.54  4433.16
                             4443.80  4463.86  4507.40  4555.10  4576.22
                             4633.57

 Zero-point correction=                           0.158994 (Hartree/Particle)
 Thermal correction to Energy=                    0.167030
 Thermal correction to Enthalpy=                  0.167974
 Thermal correction to Gibbs Free Energy=         0.126724
 Sum of electronic and zero-point Energies=           -422.990807
 Sum of electronic and thermal Energies=              -422.982771
 Sum of electronic and thermal Enthalpies=            -422.981827
 Sum of electronic and thermal Free Energies=         -423.023077

                     E (Thermal)             CV                S
                      KCal/Mol        Cal/Mol-Kelvin    Cal/Mol-Kelvin
 Total                  104.813             31.578             86.818
 Electronic               0.000              0.000              0.000
 Translational            0.889              2.981             40.409
 Rotational               0.889              2.981             28.420
 Vibrational            103.036             25.617             17.990
 Vibration     1          0.602              1.954              3.604
 Vibration     2          0.642              1.826              2.049
 Vibration     3          0.645              1.816              1.991
 Vibration     4          0.657              1.780              1.808
 Vibration     5          0.677              1.720              1.565
 Vibration     6          0.720              1.595              1.211
 Vibration     7          0.750              1.512              1.037
 Vibration     8          0.802              1.379              0.821
 Vibration     9          0.840              1.285              0.699
 Vibration    10          0.894              1.164              0.568

 Optimization completed.
    -- Stationary point found.
 Normal termination of Gaussian 09 at Mon Jan 27 18:42:35 2020.
