 Gaussian 09, Revision D.01,
 Gaussian 09:  ES64L-G09RevD.01 24-Apr-2013

 -----------------------------
 # b3lyp 6-31G(2df,p) opt Freq
 -----------------------------

 -----
 titel
 -----
 Symbolic Z-matrix:
 Charge =  0 Multiplicity = 1

 SCF Done:  E(RB3LYP) =  -423.205092138     A.U. after   14 cycles
 Optimization completed.
    -- Stationary point found.
 Normal termination of Gaussian 09 at Tue Jan 28 13:31:02 2020.

 ----------------------------------------------------------------------
 #N Geom=AllCheck Guess=TCheck SCRF=Check GenChk RB3LYP/6-31G(2df,p) Fr
 eq
 ----------------------------------------------------------------------

 Structure from the checkpoint file:  "/scratch/puck/g09_54d3c1aa-ff65-468d-a9dd-459c283a4d39/Gau-93881.chk"
 -----
 titel
 -----
 Charge =  0 Multiplicity = 1

                         Standard orientation:
 ---------------------------------------------------------------------
 Center     Atomic      Atomic             Coordinates (Angstroms)
 Number     Number       Type             X           Y           Z
 ---------------------------------------------------------------------
      1          6           0       -2.792649   -0.514503   -0.309402
      2          8           0       -1.620048    0.208358   -0.615319
      3          6           0       -0.827216    0.556134    0.515263
      4          6           0        0.021897   -0.631244    1.015735
      5          6           0        1.170930   -0.932499    0.071506
      6          8           0        1.390229   -2.034100   -0.370713
      7          6           0        2.054649    0.265482   -0.258262
      8          6           0        1.321936    1.580219   -0.238565
      9          6           0        0.042548    1.715435    0.102292
     10          1           0       -3.433075    0.034329    0.398792
     11          1           0       -3.337505   -0.648467   -1.246829
     12          1           0       -2.581289   -1.507037    0.113449
     13          1           0       -1.496271    0.873461    1.331978
     14          1           0        0.446880   -0.354443    1.990279
     15          1           0       -0.576414   -1.534518    1.151788
     16          1           0        2.877608    0.282250    0.474063
     17          1           0        2.530220    0.085102   -1.228542
     18          1           0        1.894366    2.453503   -0.542755
     19          1           0       -0.438537    2.687620    0.054631
 ---------------------------------------------------------------------

 SCF Done:  E(RB3LYP) =  -423.205092138     A.U. after    1 cycles

 The electronic state is 1-A.
 Alpha  occ. eigenvalues --  -19.14335 -19.12550 -10.26709 -10.24641 -10.22616
 Alpha  occ. eigenvalues --  -10.19802 -10.19698 -10.19047 -10.18808  -1.03842
 Alpha  occ. eigenvalues --   -1.03339  -0.83328  -0.75785  -0.73322  -0.68532
 Alpha  occ. eigenvalues --   -0.62005  -0.57589  -0.51711  -0.49614  -0.48212
 Alpha  occ. eigenvalues --   -0.47022  -0.45214  -0.43990  -0.43364  -0.41706
 Alpha  occ. eigenvalues --   -0.40642  -0.39034  -0.36870  -0.35062  -0.34371
 Alpha  occ. eigenvalues --   -0.31635  -0.26747  -0.25888  -0.23738
 Alpha virt. eigenvalues --   -0.01264   0.00657   0.08163   0.11112   0.12248
 Alpha virt. eigenvalues --    0.12811   0.14335   0.15336   0.16095   0.16716
 Alpha virt. eigenvalues --    0.17124   0.17601   0.20235   0.21684   0.22398

 Mulliken charges:
               1
     1  C   -0.238112
     2  O   -0.245717
     3  C    0.077308
     4  C   -0.336054
     5  C    0.401262
     6  O   -0.310146
     7  C   -0.357190
     8  C   -0.044687
     9  C   -0.077033
    10  H    0.103571
    11  H    0.132476
    12  H    0.113248
    13  H    0.068743
    14  H    0.119767
    15  H    0.121076
    16  H    0.135273
    17  H    0.139888
    18  H    0.099034
    19  H    0.097293
 Sum of Mulliken charges =   0.00000

 Dipole moment (field-independent basis, Debye):
    X=             -0.6757    Y=              2.1573    Z=              1.8653  Tot=              2.9308
 Quadrupole moment (field-independent basis, Debye-Ang):
   XX=            -47.9682   YY=            -57.8795   ZZ=            -53.1623
   XY=              5.6385   XZ=             -0.4032   YZ=             -1.5435

  Exact polarizability:  94.868   1.468  78.878  -5.561   1.258  60.395
 Approx polarizability: 131.077  -2.756 115.972 -10.080   6.178  95.435

                      1                      2                      3
                      A                      A                      A
 Frequencies --     57.6790                78.7927               104.6562
 Red. masses --      3.1754                 3.6622                 1.8426
 Frc consts  --      0.0062                 0.0134                 0.0119
 IR Inten    --      1.2634                 3.8777                 1.3287

                      4                      5                      6
                      A                      A                      A
 Frequencies --    198.8797               232.6897               322.8674
 Red. masses --      1.5908                 2.5255                 2.9257
 Frc consts  --      0.0371                 0.0806                 0.1797
 IR Inten    --      1.8987                 1.5251                 1.6113

                      7                      8                      9
                      A                      A                      A
 Frequencies --    392.3845               431.3203               451.2925
 Red. masses --      2.1568                 3.5158                 3.1090
 Frc consts  --      0.1956                 0.3854                 0.3731
 IR Inten    --      1.1899                 4.3070                 6.9756

                     10                     11                     12
                      A                      A                      A
 Frequencies --    485.2544               568.1661               584.0380
 Red. masses --      3.7609                 4.3925                 4.0192
 Frc consts  --      0.5218                 0.8354                 0.8077
 IR Inten    --      6.1293                 4.4726                 2.1071

                     13                     14                     15
                      A                      A                      A
 Frequencies --    713.7781               741.9384               793.5216
 Red. masses --      1.6767                 3.1476                 2.1533
 Frc consts  --      0.5033                 1.0209                 0.7989
 IR Inten    --     10.9767                 1.0415                 3.4324

                     16                     17                     18
                      A                      A                      A
 Frequencies --    889.9766               925.1524               955.3016
 Red. masses --      2.2679                 2.3865                 2.5681
 Frc consts  --      1.0583                 1.2035                 1.3808
 IR Inten    --      3.2571                20.5422                 9.6193

                     19                     20                     21
                      A                      A                      A
 Frequencies --    970.4795              1003.8001              1035.1678
 Red. masses --      3.3372                 1.2297                 2.7245
 Frc consts  --      1.8518                 0.7300                 1.7201
 IR Inten    --      9.9102                 1.6636                10.3318

                     22                     23                     24
                      A                      A                      A
 Frequencies --   1068.0343              1111.6796              1141.9978
 Red. masses --      1.8962                 2.6078                 2.2552
 Frc consts  --      1.2744                 1.8988                 1.7329
 IR Inten    --     15.8515                43.2892               154.6946

                     25                     26                     27
                      A                      A                      A
 Frequencies --   1176.7485              1181.4898              1209.8621
 Red. masses --      1.2127                 1.2443                 1.3535
 Frc consts  --      0.9894                 1.0234                 1.1673
 IR Inten    --      4.6251                 6.9640                13.2170

                     28                     29                     30
                      A                      A                      A
 Frequencies --   1224.6915              1244.6246              1291.8151
 Red. masses --      1.3383                 1.6946                 1.7297
 Frc consts  --      1.1827                 1.5467                 1.7007
 IR Inten    --     27.6485                17.2875                12.7709

                     31                     32                     33
                      A                      A                      A
 Frequencies --   1336.0553              1369.3687              1384.9831
 Red. masses --      1.8632                 1.2746                 1.4366
 Frc consts  --      1.9595                 1.4082                 1.6236
 IR Inten    --      9.8535                38.1097                 7.5684

                     34                     35                     36
                      A                      A                      A
 Frequencies --   1419.0633              1437.5573              1455.1391
 Red. masses --      1.5679                 1.0875                 1.1110
 Frc consts  --      1.8603                 1.3241                 1.3860
 IR Inten    --      6.0242                 8.0709                 8.6673

                     37                     38                     39
                      A                      A                      A
 Frequencies --   1476.0486              1493.3118              1507.8774
 Red. masses --      1.1110                 1.0747                 1.0600
 Frc consts  --      1.4261                 1.4120                 1.4200
 IR Inten    --      1.4397                 5.3072                 7.2694

                     40                     41                     42
                      A                      A                      A
 Frequencies --   1728.6863              1827.0708              2960.1126
 Red. masses --      6.8243                11.5748                 1.0808
 Frc consts  --     12.0154                22.7653                 5.5797
 IR Inten    --      5.9672               178.8813                35.6571

                     43                     44                     45
                      A                      A                      A
 Frequencies --   2978.6014              2994.4254              3027.5744
 Red. masses --      1.0405                 1.0702                 1.0747
 Frc consts  --      5.4391                 5.6539                 5.8037
 IR Inten    --     75.0752                10.6728                19.5043

                     46                     47                     48
                      A                      A                      A
 Frequencies --   3031.6500              3070.0256              3114.3107
 Red. masses --      1.0920                 1.0885                 1.0950
 Frc consts  --      5.9135                 6.0445                 6.2574
 IR Inten    --     38.7703                 6.0966                20.8542

                     49                     50                     51
                      A                      A                      A
 Frequencies --   3117.5349              3149.9135              3180.4850
 Red. masses --      1.0964                 1.0853                 1.0959
 Frc consts  --      6.2782                 6.3448                 6.5313
 IR Inten    --     21.4820                 9.5518                22.0534

 - Thermochemistry -
 -------------------
 Temperature   298.150 Kelvin.  Pressure   1.00000 Atm.
 Atom     1 has atomic number  6 and mass  12.00000

 Molecular mass:   126.06808 amu.
 Principal axes and moments of inertia in atomic units:
                           1         2         3
     Eigenvalues --   754.521171257.114921744.12585
           X            0.99760   0.06876  -0.00816
           Y           -0.06886   0.99754  -0.01335
           Z            0.00722   0.01388   0.99988
 This molecule is an asymmetric top.
 Rotational symmetry number  1.
 Warning -- assumption of classical behavior for rotation
           may cause significant error
 Rotational temperatures (Kelvin)      0.11479     0.06890     0.04966
 Rotational constants (GHZ):           2.39190     1.43562     1.03475
 Zero-point vibrational energy     416586.8 (Joules/Mol)
                                   99.56664 (Kcal/Mol)
 Warning -- explicit consideration of  12 degrees of freedom as
           vibrations may cause significant error
 Vibrational temperatures:     82.99   113.37   150.58   286.14   334.79
          (Kelvin)            464.53   564.55   620.57   649.31   698.17
                              817.46   840.30  1026.97  1067.48  1141.70
                             1280.48  1331.09  1374.46  1396.30  1444.24
                             1489.37  1536.66  1599.46  1643.08  1693.08
                             1699.90  1740.72  1762.06  1790.73  1858.63
                             1922.28  1970.21  1992.68  2041.71  2068.32
                             2093.62  2123.70  2148.54  2169.50  2487.19
                             2628.74  4258.94  4285.54  4308.30  4356.00
                             4361.86  4417.08  4480.79  4485.43  4532.02
                             4576.00

 Zero-point correction=                           0.158670 (Hartree/Particle)
 Thermal correction to Energy=                    0.167504
 Thermal correction to Enthalpy=                  0.168448
 Thermal correction to Gibbs Free Energy=         0.124389
 Sum of electronic and zero-point Energies=           -423.046423
 Sum of electronic and thermal Energies=              -423.037588
 Sum of electronic and thermal Enthalpies=            -423.036644
 Sum of electronic and thermal Free Energies=         -423.080703

                     E (Thermal)             CV                S
                      KCal/Mol        Cal/Mol-Kelvin    Cal/Mol-Kelvin
 Total                  105.110             32.459             92.731
 Electronic               0.000              0.000              0.000
 Translational            0.889              2.981             40.409
 Rotational               0.889              2.981             28.894
 Vibrational            103.333             26.498             23.429
 Vibration     1          0.596              1.974              4.535
 Vibration     2          0.600              1.963              3.921
 Vibration     3          0.605              1.946              3.366
 Vibration     4          0.637              1.841              2.143
 Vibration     5          0.653              1.791              1.858
 Vibration     6          0.708              1.630              1.296
 Vibration     7          0.760              1.486              0.991
 Vibration     8          0.792              1.402              0.854
 Vibration     9          0.810              1.358              0.792
 Vibration    10          0.841              1.283              0.696
 Vibration    11          0.924              1.100              0.508
 Vibration    12          0.941              1.066              0.478

 Normal termination of Gaussian 09 at Tue Jan 28 14:57:39 2020.
