 Gaussian 09, Revision D.01,
 Gaussian 09:  ES64L-G09RevD.01 24-Apr-2013

 -----------------------------
 # b3lyp 6-31G(2df,p) opt Freq
 -----------------------------

 -----
 titel
 -----
 Symbolic Z-matrix:
 Charge =  0 Multiplicity = 1

 SCF Done:  E(RB3LYP) =  -423.146472974     A.U. after   14 cycles
 Optimization completed.
    -- Stationary point found.
 Normal termination of Gaussian 09 at Tue Jan 28 09:44:36 2020.

 ----------------------------------------------------------------------
 #N Geom=AllCheck Guess=TCheck SCRF=Check GenChk RB3LYP/6-31G(2df,p) Fr
 eq
 ----------------------------------------------------------------------

 Structure from the checkpoint file:  "/scratch/puck/g09_63a27e96-e36d-4b79-8c71-7373c2706137/Gau-132330.chk"
 -----
 titel
 -----
 Charge =  0 Multiplicity = 1

                         Standard orientation:
 ---------------------------------------------------------------------
 Center     Atomic      Atomic             Coordinates (Angstroms)
 Number     Number       Type             X           Y           Z
 ---------------------------------------------------------------------
      1          6           0       -2.753033   -0.476578    0.001141
      2          8           0       -1.721946    0.172804   -0.723463
      3          6           0       -0.496509    0.171275   -0.071048
      4          6           0       -0.236301    1.043604    1.132152
      5          6           0        0.442230    1.345729   -0.192322
      6          6           0        1.857956    0.827877   -0.467739
      7          6           0        1.756948   -0.692496   -0.427321
      8          8           0        1.341566   -1.237507    0.835704
      9          6           0        0.357732   -1.082094   -0.194949
     10          1           0       -2.930005    0.007353    0.971276
     11          1           0       -3.658595   -0.409070   -0.605956
     12          1           0       -2.523976   -1.536608    0.180900
     13          1           0       -1.033889    1.723384    1.413069
     14          1           0        0.344954    0.633997    1.948922
     15          1           0        0.110056    2.236373   -0.713163
     16          1           0        2.180987    1.135714   -1.468822
     17          1           0        2.600616    1.202778    0.244918
     18          1           0        2.470582   -1.304157   -0.974988
     19          1           0       -0.091838   -1.996035   -0.573580
 ---------------------------------------------------------------------

 SCF Done:  E(RB3LYP) =  -423.146472974     A.U. after    1 cycles

 The electronic state is 1-A.
 Alpha  occ. eigenvalues --  -19.14929 -19.14856 -10.23636 -10.23438 -10.23399
 Alpha  occ. eigenvalues --  -10.22580 -10.19031 -10.18984 -10.18121  -1.07196
 Alpha  occ. eigenvalues --   -1.04108  -0.86188  -0.74413  -0.70079  -0.67096
 Alpha  occ. eigenvalues --   -0.60925  -0.57277  -0.55304  -0.53424  -0.48006
 Alpha  occ. eigenvalues --   -0.46653  -0.44624  -0.44037  -0.42574  -0.41349
 Alpha  occ. eigenvalues --   -0.39879  -0.38196  -0.35548  -0.34699  -0.31025
 Alpha  occ. eigenvalues --   -0.30256  -0.28013  -0.25114  -0.24663
 Alpha virt. eigenvalues --    0.08156   0.08671   0.10300   0.12296   0.13103
 Alpha virt. eigenvalues --    0.13882   0.14489   0.15144   0.15402   0.16433
 Alpha virt. eigenvalues --    0.17214   0.18673   0.19182   0.20126   0.21772

 Mulliken charges:
               1
     1  C   -0.256552
     2  O   -0.288932
     3  C    0.419916
     4  C   -0.348028
     5  C   -0.122468
     6  C   -0.266201
     7  C    0.049095
     8  O   -0.254611
     9  C   -0.046644
    10  H    0.113416
    11  H    0.126847
    12  H    0.110535
    13  H    0.111706
    14  H    0.133692
    15  H    0.098036
    16  H    0.109536
    17  H    0.116705
    18  H    0.096335
    19  H    0.097618
 Sum of Mulliken charges =   0.00000

 Dipole moment (field-independent basis, Debye):
    X=             -0.3732    Y=              0.2472    Z=             -0.6349  Tot=              0.7768
 Quadrupole moment (field-independent basis, Debye-Ang):
   XX=            -49.2487   YY=            -52.4946   ZZ=            -54.9460
   XY=              2.5927   XZ=             -4.5109   YZ=              2.3892

  Exact polarizability:  87.584   3.133  71.372  -4.214   1.766  63.944
 Approx polarizability: 115.737   4.789 103.245  -2.650  -1.118 103.747

                      1                      2                      3
                      A                      A                      A
 Frequencies --    117.2101               158.3815               180.1698
 Red. masses --      2.5402                 3.1359                 1.1422
 Frc consts  --      0.0206                 0.0463                 0.0218
 IR Inten    --      2.8152                 3.0714                 0.2008

                      4                      5                      6
                      A                      A                      A
 Frequencies --    266.4224               305.9862               370.6105
 Red. masses --      2.7857                 3.0765                 3.4760
 Frc consts  --      0.1165                 0.1697                 0.2813
 IR Inten    --      4.2240                 1.5368                10.5230

                      7                      8                      9
                      A                      A                      A
 Frequencies --    385.9698               437.6577               500.8590
 Red. masses --      3.8558                 2.2086                 4.5062
 Frc consts  --      0.3384                 0.2493                 0.6660
 IR Inten    --      4.1571                 0.3793                 3.7590

                     10                     11                     12
                      A                      A                      A
 Frequencies --    634.9894               703.4757               734.8711
 Red. masses --      3.6085                 4.3760                 3.9647
 Frc consts  --      0.8573                 1.2759                 1.2615
 IR Inten    --      7.8674                 1.9987                 1.7370

                     13                     14                     15
                      A                      A                      A
 Frequencies --    804.0146               838.6061               862.1840
 Red. masses --      3.5045                 1.5802                 2.2103
 Frc consts  --      1.3348                 0.6547                 0.9680
 IR Inten    --      9.0803                 8.9037                22.5557

                     16                     17                     18
                      A                      A                      A
 Frequencies --    891.0167               925.4361               958.6894
 Red. masses --      2.8519                 1.7069                 2.4800
 Frc consts  --      1.3340                 0.8613                 1.3430
 IR Inten    --      1.4985                 7.7432                15.7080

                     19                     20                     21
                      A                      A                      A
 Frequencies --    972.4407               994.0999              1051.1141
 Red. masses --      4.1916                 1.6469                 1.9437
 Frc consts  --      2.3354                 0.9589                 1.2652
 IR Inten    --      3.7415                 4.5206                26.6289

                     22                     23                     24
                      A                      A                      A
 Frequencies --   1064.6706              1067.2597              1088.2886
 Red. masses --      1.8052                 2.0186                 1.3088
 Frc consts  --      1.2056                 1.3547                 0.9133
 IR Inten    --      8.1267                 4.4899                 3.0590

                     25                     26                     27
                      A                      A                      A
 Frequencies --   1111.3860              1113.5825              1182.8133
 Red. masses --      2.1415                 1.5930                 1.2814
 Frc consts  --      1.5585                 1.1639                 1.0563
 IR Inten    --     31.4110                 3.6293                 2.7318

                     28                     29                     30
                      A                      A                      A
 Frequencies --   1206.5302              1215.2765              1238.9021
 Red. masses --      1.4739                 1.2959                 1.6083
 Frc consts  --      1.2642                 1.1276                 1.4544
 IR Inten    --     25.3590                 3.1408                43.2848

                     31                     32                     33
                      A                      A                      A
 Frequencies --   1265.5850              1270.6472              1298.3416
 Red. masses --      1.7859                 1.8117                 2.0392
 Frc consts  --      1.6854                 1.7234                 2.0253
 IR Inten    --     13.3231                30.5249                13.0522

                     34                     35                     36
                      A                      A                      A
 Frequencies --   1335.5519              1392.4482              1419.2832
 Red. masses --      1.7617                 1.7463                 2.7564
 Frc consts  --      1.8514                 1.9949                 3.2714
 IR Inten    --     11.8558                27.8111                15.3292

                     37                     38                     39
                      A                      A                      A
 Frequencies --   1465.8954              1477.7188              1487.3492
 Red. masses --      1.2695                 1.0967                 1.1176
 Frc consts  --      1.6073                 1.4109                 1.4567
 IR Inten    --      8.8643                 2.5762                 4.0837

                     40                     41                     42
                      A                      A                      A
 Frequencies --   1490.1717              1507.8444              2994.4998
 Red. masses --      1.2873                 1.0592                 1.0352
 Frc consts  --      1.6842                 1.4189                 5.4691
 IR Inten    --     10.2418                 6.0046                49.2856

                     43                     44                     45
                      A                      A                      A
 Frequencies --   3041.2872              3048.1303              3080.3231
 Red. masses --      1.0594                 1.1029                 1.1036
 Frc consts  --      5.7735                 6.0377                 6.1696
 IR Inten    --     29.7351                42.3302                15.0809

                     46                     47                     48
                      A                      A                      A
 Frequencies --   3121.3789              3136.1084              3138.1325
 Red. masses --      1.0987                 1.0882                 1.0541
 Frc consts  --      6.3072                 6.3057                 6.1163
 IR Inten    --     30.9279                27.9437                13.2047

                     49                     50                     51
                      A                      A                      A
 Frequencies --   3155.3292              3178.3993              3235.3527
 Red. masses --      1.0940                 1.0911                 1.1161
 Frc consts  --      6.4171                 6.4941                 6.8836
 IR Inten    --     25.7669                 8.1182                 2.7483

 - Thermochemistry -
 -------------------
 Temperature   298.150 Kelvin.  Pressure   1.00000 Atm.
 Atom     1 has atomic number  6 and mass  12.00000

 Molecular mass:   126.06808 amu.
 Principal axes and moments of inertia in atomic units:
                           1         2         3
     Eigenvalues --   577.977541259.332541468.76835
           X            0.99902   0.03585  -0.02605
           Y           -0.03454   0.99819   0.04933
           Z            0.02777  -0.04838   0.99844
 This molecule is an asymmetric top.
 Rotational symmetry number  1.
 Warning -- assumption of classical behavior for rotation
           may cause significant error
 Rotational temperatures (Kelvin)      0.14986     0.06878     0.05897
 Rotational constants (GHZ):           3.12251     1.43309     1.22874
 Zero-point vibrational energy     418230.6 (Joules/Mol)
                                   99.95951 (Kcal/Mol)
 Warning -- explicit consideration of   9 degrees of freedom as
           vibrations may cause significant error
 Vibrational temperatures:    168.64   227.88   259.22   383.32   440.25
          (Kelvin)            533.23   555.32   629.69   720.62   913.61
                             1012.14  1057.31  1156.80  1206.57  1240.49
                             1281.97  1331.49  1379.34  1399.12  1430.29
                             1512.32  1531.82  1535.55  1565.80  1599.03
                             1602.19  1701.80  1735.93  1748.51  1782.50
                             1820.89  1828.18  1868.02  1921.56  2003.42
                             2042.03  2109.09  2126.11  2139.96  2144.02
                             2169.45  4308.41  4375.73  4385.57  4431.89
                             4490.96  4512.15  4515.07  4539.81  4573.00
                             4654.95

 Zero-point correction=                           0.159296 (Hartree/Particle)
 Thermal correction to Energy=                    0.167187
 Thermal correction to Enthalpy=                  0.168132
 Thermal correction to Gibbs Free Energy=         0.127100
 Sum of electronic and zero-point Energies=           -422.987177
 Sum of electronic and thermal Energies=              -422.979286
 Sum of electronic and thermal Enthalpies=            -422.978341
 Sum of electronic and thermal Free Energies=         -423.019373

                     E (Thermal)             CV                S
                      KCal/Mol        Cal/Mol-Kelvin    Cal/Mol-Kelvin
 Total                  104.912             31.030             86.358
 Electronic               0.000              0.000              0.000
 Translational            0.889              2.981             40.409
 Rotational               0.889              2.981             28.460
 Vibrational            103.134             25.068             17.489
 Vibration     1          0.608              1.935              3.146
 Vibration     2          0.621              1.893              2.569
 Vibration     3          0.629              1.867              2.327
 Vibration     4          0.672              1.735              1.619
 Vibration     5          0.696              1.662              1.384
 Vibration     6          0.743              1.533              1.077
 Vibration     7          0.755              1.500              1.016
 Vibration     8          0.798              1.388              0.834
 Vibration     9          0.856              1.248              0.656

 Optimization completed.
    -- Stationary point found.
 Normal termination of Gaussian 09 at Tue Jan 28 10:29:40 2020.
