 Gaussian 09, Revision D.01,
 Gaussian 09:  ES64L-G09RevD.01 24-Apr-2013

 -----------------------------
 # b3lyp 6-31G(2df,p) opt Freq
 -----------------------------

 -----
 titel
 -----
 Symbolic Z-matrix:
 Charge =  0 Multiplicity = 1

 SCF Done:  E(RB3LYP) =  -423.165142428     A.U. after   14 cycles
 Optimization completed.
    -- Stationary point found.
 Normal termination of Gaussian 09 at Mon Jan 27 22:04:34 2020.

 ----------------------------------------------------------------------
 #N Geom=AllCheck Guess=TCheck SCRF=Check GenChk RB3LYP/6-31G(2df,p) Fr
 eq
 ----------------------------------------------------------------------

 Structure from the checkpoint file:  "/scratch/puck/g09_6f6967ee-30ec-46b1-adc4-bd8a7d872ea3/Gau-62980.chk"
 -----
 titel
 -----
 Charge =  0 Multiplicity = 1

                         Standard orientation:
 ---------------------------------------------------------------------
 Center     Atomic      Atomic             Coordinates (Angstroms)
 Number     Number       Type             X           Y           Z
 ---------------------------------------------------------------------
      1          6           0       -1.546627   -1.624074   -0.866662
      2          6           0       -0.387986   -0.653695   -0.812539
      3          6           0       -0.482005    0.720864   -0.264108
      4          6           0       -0.104583    1.993968   -0.945220
      5          8           0       -1.391712    0.791980    0.833422
      6          6           0       -0.584019   -0.122386    1.620259
      7          6           0        0.388497   -0.353167    0.472745
      8          6           0        1.848627   -0.387564    0.536450
      9          8           0        2.578727   -0.437351   -0.430818
     10          1           0       -2.051577   -1.551766   -1.835443
     11          1           0       -1.205382   -2.656472   -0.742827
     12          1           0       -2.286072   -1.403675   -0.093392
     13          1           0        0.315933   -0.715640   -1.639758
     14          1           0       -0.935818    2.355195   -1.561624
     15          1           0        0.143020    2.770618   -0.216283
     16          1           0        0.757758    1.827241   -1.596058
     17          1           0       -0.131775    0.404590    2.468809
     18          1           0       -1.162853   -0.978713    1.983343
     19          1           0        2.269228   -0.332089    1.566852
 ---------------------------------------------------------------------

 SCF Done:  E(RB3LYP) =  -423.165142428     A.U. after    1 cycles

 The electronic state is 1-A.
 Alpha  occ. eigenvalues --  -19.15429 -19.12963 -10.26793 -10.26526 -10.24845
 Alpha  occ. eigenvalues --  -10.20712 -10.20664 -10.19291 -10.18484  -1.06866
 Alpha  occ. eigenvalues --   -1.03572  -0.85474  -0.75859  -0.73586  -0.68418
 Alpha  occ. eigenvalues --   -0.64330  -0.57089  -0.52486  -0.50959  -0.48379
 Alpha  occ. eigenvalues --   -0.47842  -0.43658  -0.42931  -0.41864  -0.41453
 Alpha  occ. eigenvalues --   -0.40208  -0.39533  -0.38580  -0.36623  -0.35820
 Alpha  occ. eigenvalues --   -0.32525  -0.27284  -0.25623  -0.24277
 Alpha virt. eigenvalues --   -0.02800   0.06907   0.09237   0.10822   0.11937
 Alpha virt. eigenvalues --    0.12903   0.13746   0.14275   0.15611   0.16950
 Alpha virt. eigenvalues --    0.17343   0.18517   0.19041   0.19154   0.20560

 Mulliken charges:
               1
     1  C   -0.428011
     2  C   -0.119897
     3  C    0.410615
     4  C   -0.486128
     5  O   -0.309241
     6  C   -0.162841
     7  C    0.095422
     8  C    0.059725
     9  O   -0.286755
    10  H    0.126038
    11  H    0.124714
    12  H    0.136747
    13  H    0.121728
    14  H    0.138442
    15  H    0.133393
    16  H    0.150732
    17  H    0.115816
    18  H    0.112214
    19  H    0.067287
 Sum of Mulliken charges =   0.00000

 Dipole moment (field-independent basis, Debye):
    X=             -1.3697    Y=             -0.0434    Z=              0.7716  Tot=              1.5727
 Quadrupole moment (field-independent basis, Debye-Ang):
   XX=            -63.0449   YY=            -51.5950   ZZ=            -49.6154
   XY=              3.3741   XZ=              4.6969   YZ=             -2.1825

  Exact polarizability:  83.096   0.085  72.662   3.003  -1.054  78.992
 Approx polarizability: 128.506  -8.965 103.677  -2.075  -0.800 119.894

                      1                      2                      3
                      A                      A                      A
 Frequencies --     93.0084               162.1945               170.8969
 Red. masses --      4.7042                 3.1681                 1.1079
 Frc consts  --      0.0240                 0.0491                 0.0191
 IR Inten    --      6.0139                 6.8410                 0.7628

                      4                      5                      6
                      A                      A                      A
 Frequencies --    195.3482               198.8081               228.6659
 Red. masses --      1.1966                 1.9409                 2.5401
 Frc consts  --      0.0269                 0.0452                 0.0783
 IR Inten    --      0.9654                 6.4135                 0.8130

                      7                      8                      9
                      A                      A                      A
 Frequencies --    257.8927               279.2366               354.0741
 Red. masses --      3.1959                 2.2813                 3.0625
 Frc consts  --      0.1252                 0.1048                 0.2262
 IR Inten    --      6.1759                 1.1854                 2.2189

                     10                     11                     12
                      A                      A                      A
 Frequencies --    443.0644               537.9803               576.5041
 Red. masses --      3.5985                 3.8489                 3.4858
 Frc consts  --      0.4162                 0.6563                 0.6826
 IR Inten    --      3.9532                11.5863                 2.4975

                     13                     14                     15
                      A                      A                      A
 Frequencies --    646.6422               707.5921               758.5523
 Red. masses --      4.1349                 3.9648                 3.6005
 Frc consts  --      1.0187                 1.1696                 1.2206
 IR Inten    --     10.6142                 2.4587                25.9343

                     16                     17                     18
                      A                      A                      A
 Frequencies --    767.4285               921.9735               957.9589
 Red. masses --      3.1091                 2.1567                 1.7091
 Frc consts  --      1.0788                 1.0801                 0.9241
 IR Inten    --     32.0751                32.8589                 6.9485

                     19                     20                     21
                      A                      A                      A
 Frequencies --    990.5566              1010.4436              1032.8170
 Red. masses --      3.1205                 1.4575                 1.9315
 Frc consts  --      1.8040                 0.8768                 1.2140
 IR Inten    --     41.8988                42.7574                29.7498

                     22                     23                     24
                      A                      A                      A
 Frequencies --   1053.9890              1096.2782              1114.5150
 Red. masses --      1.6836                 1.7301                 2.6696
 Frc consts  --      1.1019                 1.2251                 1.9538
 IR Inten    --      4.5029                21.4475                24.2010

                     25                     26                     27
                      A                      A                      A
 Frequencies --   1122.1663              1159.3064              1182.0004
 Red. masses --      1.6997                 1.2388                 2.2643
 Frc consts  --      1.2610                 0.9809                 1.8639
 IR Inten    --      2.0429                12.2754                31.1827

                     28                     29                     30
                      A                      A                      A
 Frequencies --   1230.2813              1276.4345              1297.9110
 Red. masses --      3.4541                 2.0393                 1.7354
 Frc consts  --      3.0803                 1.9576                 1.7224
 IR Inten    --     38.8559                33.3891                16.3333

                     31                     32                     33
                      A                      A                      A
 Frequencies --   1355.2122              1407.3242              1408.5647
 Red. masses --      1.5631                 1.2615                 1.2407
 Frc consts  --      1.6914                 1.4721                 1.4504
 IR Inten    --     13.4510                11.4286                 2.6769

                     34                     35                     36
                      A                      A                      A
 Frequencies --   1434.0042              1474.6302              1478.9818
 Red. masses --      1.4051                 1.0512                 1.6386
 Frc consts  --      1.7023                 1.3468                 2.1118
 IR Inten    --      7.3600                 2.3230                17.9156

                     37                     38                     39
                      A                      A                      A
 Frequencies --   1492.1660              1494.7974              1512.2171
 Red. masses --      1.0559                 1.0732                 1.5529
 Frc consts  --      1.3852                 1.4129                 2.0924
 IR Inten    --      4.5080                 1.0341                28.1648

                     40                     41                     42
                      A                      A                      A
 Frequencies --   1523.3935              1780.5799              2863.3181
 Red. masses --      1.1259                 9.9601                 1.0815
 Frc consts  --      1.5394                18.6053                 5.2243
 IR Inten    --      0.8847               202.5436               135.4423

                     43                     44                     45
                      A                      A                      A
 Frequencies --   3025.5343              3036.5583              3041.7320
 Red. masses --      1.0552                 1.0369                 1.0365
 Frc consts  --      5.6911                 5.6333                 5.6500
 IR Inten    --     62.2667                17.0690                24.7837

                     46                     47                     48
                      A                      A                      A
 Frequencies --   3074.5924              3102.1705              3103.0256
 Red. masses --      1.1104                 1.1011                 1.0986
 Frc consts  --      6.1846                 6.2435                 6.2322
 IR Inten    --     34.2997                14.5758                12.7402

                     49                     50                     51
                      A                      A                      A
 Frequencies --   3125.2902              3129.4710              3151.4864
 Red. masses --      1.0983                 1.1017                 1.0875
 Frc consts  --      6.3204                 6.3571                 6.3640
 IR Inten    --     11.0115                 6.8394                 4.3628

 - Thermochemistry -
 -------------------
 Temperature   298.150 Kelvin.  Pressure   1.00000 Atm.
 Atom     1 has atomic number  6 and mass  12.00000

 Molecular mass:   126.06808 amu.
 Principal axes and moments of inertia in atomic units:
                           1         2         3
     Eigenvalues --   859.532501220.964041336.67233
           X            0.99482   0.09469   0.03688
           Y           -0.09216   0.99361  -0.06509
           Z           -0.04281   0.06135   0.99720
 This molecule is an asymmetric top.
 Rotational symmetry number  1.
 Warning -- assumption of classical behavior for rotation
           may cause significant error
 Rotational temperatures (Kelvin)      0.10077     0.07094     0.06480
 Rotational constants (GHZ):           2.09968     1.47813     1.35017
 Zero-point vibrational energy     411752.1 (Joules/Mol)
                                   98.41111 (Kcal/Mol)
 Warning -- explicit consideration of  12 degrees of freedom as
           vibrations may cause significant error
 Vibrational temperatures:    133.82   233.36   245.88   281.06   286.04
          (Kelvin)            329.00   371.05   401.76   509.43   637.47
                              774.03   829.46   930.37  1018.07  1091.39
                             1104.16  1326.51  1378.29  1425.19  1453.80
                             1485.99  1516.45  1577.30  1603.54  1614.54
                             1667.98  1700.63  1770.10  1836.50  1867.40
                             1949.85  2024.82  2026.61  2063.21  2121.66
                             2127.92  2146.89  2150.68  2175.74  2191.82
                             2561.85  4119.67  4353.06  4368.92  4376.37
                             4423.65  4463.33  4464.56  4496.59  4502.61
                             4534.28

 Zero-point correction=                           0.156828 (Hartree/Particle)
 Thermal correction to Energy=                    0.166070
 Thermal correction to Enthalpy=                  0.167014
 Thermal correction to Gibbs Free Energy=         0.123119
 Sum of electronic and zero-point Energies=           -423.008314
 Sum of electronic and thermal Energies=              -422.999073
 Sum of electronic and thermal Enthalpies=            -422.998128
 Sum of electronic and thermal Free Energies=         -423.042023

                     E (Thermal)             CV                S
                      KCal/Mol        Cal/Mol-Kelvin    Cal/Mol-Kelvin
 Total                  104.210             33.978             92.384
 Electronic               0.000              0.000              0.000
 Translational            0.889              2.981             40.409
 Rotational               0.889              2.981             28.730
 Vibrational            102.433             28.016             23.246
 Vibration     1          0.602              1.954              3.596
 Vibration     2          0.622              1.889              2.524
 Vibration     3          0.626              1.878              2.426
 Vibration     4          0.636              1.846              2.176
 Vibration     5          0.637              1.842              2.144
 Vibration     6          0.651              1.797              1.889
 Vibration     7          0.667              1.749              1.676
 Vibration     8          0.680              1.712              1.538
 Vibration     9          0.730              1.567              1.148
 Vibration    10          0.803              1.376              0.817
 Vibration    11          0.893              1.166              0.570
 Vibration    12          0.933              1.082              0.492

 Optimization completed.
    -- Stationary point found.
 Normal termination of Gaussian 09 at Mon Jan 27 22:49:28 2020.
