 Gaussian 09, Revision D.01,
 Gaussian 09:  ES64L-G09RevD.01 24-Apr-2013

 -----------------------------
 # b3lyp 6-31G(2df,p) opt Freq
 -----------------------------

 -----
 titel
 -----
 Symbolic Z-matrix:
 Charge =  0 Multiplicity = 1

 SCF Done:  E(RB3LYP) =  -423.172133792     A.U. after   14 cycles
 Optimization completed.
    -- Stationary point found.
 Normal termination of Gaussian 09 at Mon Jan 27 11:30:23 2020.

 ----------------------------------------------------------------------
 #N Geom=AllCheck Guess=TCheck SCRF=Check GenChk RB3LYP/6-31G(2df,p) Fr
 eq
 ----------------------------------------------------------------------

 Structure from the checkpoint file:  "/scratch/puck/g09_6ffffb2d-ae7e-4b56-bcc9-49d43a81174d/Gau-61603.chk"
 -----
 titel
 -----
 Charge =  0 Multiplicity = 1

                         Standard orientation:
 ---------------------------------------------------------------------
 Center     Atomic      Atomic             Coordinates (Angstroms)
 Number     Number       Type             X           Y           Z
 ---------------------------------------------------------------------
      1          6           0       -2.149559   -0.581202   -0.023050
      2          8           0       -1.885653    0.835176    0.068295
      3          6           0       -0.790225   -0.060123    0.011825
      4          6           0        0.252807   -0.133102    1.122445
      5          6           0        1.051259    1.165796    0.842782
      6          6           0        1.044183    1.251484   -0.723815
      7          6           0        0.235391   -0.000524   -1.111834
      8          8           0        1.033247   -1.163178   -0.849591
      9          6           0        1.070973   -1.319556    0.588587
     10          1           0       -2.586521   -1.025967    0.869907
     11          1           0       -2.583121   -0.911114   -0.965809
     12          1           0       -0.115792   -0.252345    2.141041
     13          1           0        0.545324    2.026560    1.286491
     14          1           0        2.061313    1.118063    1.258456
     15          1           0        0.552222    2.162871   -1.075077
     16          1           0        2.044966    1.208534   -1.158575
     17          1           0       -0.129898   -0.045838   -2.137555
     18          1           0        0.629161   -2.287876    0.857674
     19          1           0        2.112625   -1.305514    0.932176
 ---------------------------------------------------------------------

 SCF Done:  E(RB3LYP) =  -423.172133792     A.U. after    1 cycles

 The electronic state is 1-A.
 Alpha  occ. eigenvalues --  -19.15434 -19.13544 -10.23916 -10.23630 -10.23047
 Alpha  occ. eigenvalues --  -10.22904 -10.19490 -10.18578 -10.18006  -1.07594
 Alpha  occ. eigenvalues --   -1.03225  -0.82420  -0.75259  -0.69949  -0.65819
 Alpha  occ. eigenvalues --   -0.63465  -0.56416  -0.55836  -0.52431  -0.48903
 Alpha  occ. eigenvalues --   -0.47164  -0.46840  -0.41654  -0.41490  -0.40066
 Alpha  occ. eigenvalues --   -0.37785  -0.37010  -0.36403  -0.33988  -0.33657
 Alpha  occ. eigenvalues --   -0.31298  -0.30316  -0.26776  -0.23834
 Alpha virt. eigenvalues --    0.08491   0.08999   0.09928   0.11407   0.12208
 Alpha virt. eigenvalues --    0.13663   0.14599   0.15296   0.15697   0.16705
 Alpha virt. eigenvalues --    0.17307   0.18311   0.19730   0.21496   0.22284

 Mulliken charges:
               1
     1  C   -0.300155
     2  O   -0.307067
     3  C    0.515313
     4  C   -0.150687
     5  C   -0.219784
     6  C   -0.221374
     7  C    0.018425
     8  O   -0.287244
     9  C   -0.071901
    10  H    0.117363
    11  H    0.121141
    12  H    0.075563
    13  H    0.113060
    14  H    0.099942
    15  H    0.110922
    16  H    0.108066
    17  H    0.080301
    18  H    0.098444
    19  H    0.099672
 Sum of Mulliken charges =   0.00000

 Dipole moment (field-independent basis, Debye):
    X=              0.0783    Y=             -0.5135    Z=              0.9533  Tot=              1.0856
 Quadrupole moment (field-independent basis, Debye-Ang):
   XX=            -53.8078   YY=            -54.7207   ZZ=            -51.3685
   XY=              5.1265   XZ=              2.1982   YZ=             -2.6545

  Exact polarizability:  80.193   4.649  71.001   2.290  -2.917  69.837
 Approx polarizability: 111.366   1.233 106.830   1.813  -2.033 102.977

                      1                      2                      3
                      A                      A                      A
 Frequencies --    151.9050               169.1010               268.3433
 Red. masses --      3.8589                 2.1945                 2.3091
 Frc consts  --      0.0525                 0.0370                 0.0980
 IR Inten    --      2.9900                 2.5016                 1.2890

                      4                      5                      6
                      A                      A                      A
 Frequencies --    291.8183               368.2532               389.1810
 Red. masses --      3.7181                 2.8283                 2.5188
 Frc consts  --      0.1865                 0.2260                 0.2248
 IR Inten    --      4.9602                 0.4575                 4.1904

                      7                      8                      9
                      A                      A                      A
 Frequencies --    539.8346               590.8582               613.1207
 Red. masses --      4.3314                 4.2697                 4.8755
 Frc consts  --      0.7437                 0.8782                 1.0798
 IR Inten    --      2.7216                 9.3461                 1.2390

                     10                     11                     12
                      A                      A                      A
 Frequencies --    755.4692               796.1412               850.9386
 Red. masses --      3.2921                 1.6219                 2.2332
 Frc consts  --      1.1070                 0.6057                 0.9528
 IR Inten    --      3.6559                 1.3905                 2.4160

                     13                     14                     15
                      A                      A                      A
 Frequencies --    874.1877               883.0621               890.9199
 Red. masses --      2.9007                 3.4784                 3.2681
 Frc consts  --      1.3061                 1.5981                 1.5284
 IR Inten    --      7.7385                16.2255                 9.7955

                     16                     17                     18
                      A                      A                      A
 Frequencies --    926.4217               940.3972               973.8967
 Red. masses --      2.9452                 1.8086                 1.8156
 Frc consts  --      1.4893                 0.9424                 1.0146
 IR Inten    --     12.7664                 1.2949                 8.3912

                     19                     20                     21
                      A                      A                      A
 Frequencies --    988.0895               999.0447              1036.9641
 Red. masses --      2.0327                 4.3079                 2.5616
 Frc consts  --      1.1693                 2.5333                 1.6229
 IR Inten    --      4.6904                47.7313                56.2722

                     22                     23                     24
                      A                      A                      A
 Frequencies --   1050.7610              1088.7323              1118.1347
 Red. masses --      2.0913                 1.7827                 1.2644
 Frc consts  --      1.3604                 1.2450                 0.9314
 IR Inten    --     11.9390                 0.5697                 2.2606

                     25                     26                     27
                      A                      A                      A
 Frequencies --   1143.5795              1165.3322              1182.3869
 Red. masses --      1.4155                 1.3610                 1.3384
 Frc consts  --      1.0907                 1.0889                 1.1025
 IR Inten    --      9.7722                 1.9904                 3.0242

                     28                     29                     30
                      A                      A                      A
 Frequencies --   1211.3695              1214.9763              1233.8795
 Red. masses --      1.7296                 1.7454                 1.3594
 Frc consts  --      1.4953                 1.5180                 1.2194
 IR Inten    --      5.5118                 0.9342                 1.9657

                     31                     32                     33
                      A                      A                      A
 Frequencies --   1273.4429              1281.1547              1300.5325
 Red. masses --      1.6294                 1.5403                 1.2755
 Frc consts  --      1.5568                 1.4896                 1.2711
 IR Inten    --      1.7505                 0.4830                 5.3389

                     34                     35                     36
                      A                      A                      A
 Frequencies --   1320.5507              1334.8682              1380.7153
 Red. masses --      1.6290                 1.4184                 1.3958
 Frc consts  --      1.6737                 1.4891                 1.5678
 IR Inten    --      4.7785                 0.6029                 4.2828

                     37                     38                     39
                      A                      A                      A
 Frequencies --   1462.4091              1474.3550              1498.4356
 Red. masses --      1.7173                 1.0894                 1.0960
 Frc consts  --      2.1639                 1.3952                 1.4499
 IR Inten    --     10.0292                 1.3802                 3.4594

                     40                     41                     42
                      A                      A                      A
 Frequencies --   1528.6827              1548.8394              3009.4666
 Red. masses --      1.1100                 1.9566                 1.0572
 Frc consts  --      1.5283                 2.7655                 5.6415
 IR Inten    --      0.4537                 8.5286                74.6402

                     43                     44                     45
                      A                      A                      A
 Frequencies --   3047.5490              3058.9082              3067.5051
 Red. masses --      1.1087                 1.0593                 1.0612
 Frc consts  --      6.0668                 5.8397                 5.8834
 IR Inten    --     35.7419                26.0357                35.1390

                     46                     47                     48
                      A                      A                      A
 Frequencies --   3084.8274              3102.0495              3121.4729
 Red. masses --      1.0509                 1.1062                 1.0904
 Frc consts  --      5.8923                 6.2715                 6.2595
 IR Inten    --     26.5888                 3.4249                29.7945

                     49                     50                     51
                      A                      A                      A
 Frequencies --   3122.6142              3126.7842              3171.4624
 Red. masses --      1.1029                 1.0916                 1.1192
 Frc consts  --      6.3362                 6.2877                 6.6326
 IR Inten    --     32.7975                14.7566                19.8241

 - Thermochemistry -
 -------------------
 Temperature   298.150 Kelvin.  Pressure   1.00000 Atm.
 Atom     1 has atomic number  6 and mass  12.00000

 Molecular mass:   126.06808 amu.
 Principal axes and moments of inertia in atomic units:
                           1         2         3
     Eigenvalues --   684.688481018.189211142.31065
           X            0.99602   0.08713   0.01893
           Y           -0.08511   0.99236  -0.08933
           Z           -0.02657   0.08736   0.99582
 This molecule is an asymmetric top.
 Rotational symmetry number  1.
 Warning -- assumption of classical behavior for rotation
           may cause significant error
 Rotational temperatures (Kelvin)      0.12650     0.08507     0.07582
 Rotational constants (GHZ):           2.63586     1.77250     1.57990
 Zero-point vibrational energy     424816.2 (Joules/Mol)
                                  101.53351 (Kcal/Mol)
 Warning -- explicit consideration of   9 degrees of freedom as
           vibrations may cause significant error
 Vibrational temperatures:    218.56   243.30   386.09   419.86   529.83
          (Kelvin)            559.94   776.70   850.11   882.14  1086.95
                             1145.47  1224.31  1257.76  1270.53  1281.83
                             1332.91  1353.02  1401.22  1421.64  1437.40
                             1491.96  1511.81  1566.44  1608.74  1645.35
                             1676.65  1701.19  1742.89  1748.08  1775.28
                             1832.20  1843.29  1871.17  1899.98  1920.58
                             1986.54  2104.08  2121.27  2155.91  2199.43
                             2228.43  4329.95  4384.74  4401.08  4413.45
                             4438.37  4463.15  4491.10  4492.74  4498.74
                             4563.02

 Zero-point correction=                           0.161804 (Hartree/Particle)
 Thermal correction to Energy=                    0.168880
 Thermal correction to Enthalpy=                  0.169825
 Thermal correction to Gibbs Free Energy=         0.130551
 Sum of electronic and zero-point Energies=           -423.010330
 Sum of electronic and thermal Energies=              -423.003253
 Sum of electronic and thermal Enthalpies=            -423.002309
 Sum of electronic and thermal Free Energies=         -423.041583

                     E (Thermal)             CV                S
                      KCal/Mol        Cal/Mol-Kelvin    Cal/Mol-Kelvin
 Total                  105.974             28.735             82.658
 Electronic               0.000              0.000              0.000
 Translational            0.889              2.981             40.409
 Rotational               0.889              2.981             28.167
 Vibrational            104.197             22.773             14.082
 Vibration     1          0.619              1.901              2.648
 Vibration     2          0.625              1.881              2.445
 Vibration     3          0.673              1.731              1.607
 Vibration     4          0.687              1.689              1.463
 Vibration     5          0.741              1.538              1.087
 Vibration     6          0.757              1.493              1.003
 Vibration     7          0.895              1.162              0.566
 Vibration     8          0.948              1.051              0.466
 Vibration     9          0.972              1.004              0.428

 Optimization completed.
    -- Stationary point found.
 Normal termination of Gaussian 09 at Mon Jan 27 13:49:16 2020.
