 Gaussian 09, Revision D.01,
 Gaussian 09:  ES64L-G09RevD.01 24-Apr-2013

 -----------------------------
 # b3lyp 6-31G(2df,p) opt Freq
 -----------------------------

 -----
 titel
 -----
 Symbolic Z-matrix:
 Charge =  0 Multiplicity = 1

 SCF Done:  E(RB3LYP) =  -423.131202281     A.U. after   14 cycles
 Optimization completed.
    -- Stationary point found.
 Normal termination of Gaussian 09 at Tue Jan 28 08:11:56 2020.

 ----------------------------------------------------------------------
 #N Geom=AllCheck Guess=TCheck SCRF=Check GenChk RB3LYP/6-31G(2df,p) Fr
 eq
 ----------------------------------------------------------------------

 Structure from the checkpoint file:  "/scratch/puck/g09_991e97a8-5ffc-4a07-bfa1-c721ab24c042/Gau-101998.chk"
 -----
 titel
 -----
 Charge =  0 Multiplicity = 1

                         Standard orientation:
 ---------------------------------------------------------------------
 Center     Atomic      Atomic             Coordinates (Angstroms)
 Number     Number       Type             X           Y           Z
 ---------------------------------------------------------------------
      1          6           0       -2.736751    1.535728   -0.144428
      2          6           0       -2.487190    0.048397   -0.009941
      3          6           0       -1.586254   -0.448957    1.140376
      4          6           0       -0.740793   -1.097426    0.012234
      5          8           0       -1.549733   -0.446882   -1.002427
      6          6           0        0.671769   -0.773754   -0.063298
      7          6           0        1.849836   -0.521787   -0.109869
      8          6           0        3.263000   -0.157555   -0.192935
      9          8           0        3.546564    1.147363    0.291972
     10          1           0       -3.186047    1.761471   -1.116663
     11          1           0       -3.422300    1.881017    0.637450
     12          1           0       -1.798846    2.093115   -0.061046
     13          1           0       -3.435056   -0.504045   -0.078926
     14          1           0       -1.063399    0.349182    1.669585
     15          1           0       -2.030775   -1.138260    1.858801
     16          1           0       -0.867787   -2.187977   -0.039922
     17          1           0        3.861931   -0.840023    0.420433
     18          1           0        3.606457   -0.283690   -1.232279
     19          1           0        2.959461    1.757485   -0.166629
 ---------------------------------------------------------------------

 SCF Done:  E(RB3LYP) =  -423.131202281     A.U. after    1 cycles

 The electronic state is 1-A.
 Alpha  occ. eigenvalues --  -19.14177 -19.13316 -10.25671 -10.25353 -10.23790
 Alpha  occ. eigenvalues --  -10.19360 -10.18228 -10.17929 -10.17910  -1.03857
 Alpha  occ. eigenvalues --   -1.02362  -0.78140  -0.76293  -0.74135  -0.69504
 Alpha  occ. eigenvalues --   -0.64741  -0.56260  -0.53294  -0.50667  -0.49227
 Alpha  occ. eigenvalues --   -0.47095  -0.46352  -0.44529  -0.42704  -0.39380
 Alpha  occ. eigenvalues --   -0.39122  -0.37112  -0.35689  -0.33944  -0.30960
 Alpha  occ. eigenvalues --   -0.28894  -0.26593  -0.26215  -0.24947
 Alpha virt. eigenvalues --    0.02317   0.02937   0.09069   0.10887   0.11135
 Alpha virt. eigenvalues --    0.12495   0.13046   0.13460   0.15426   0.15917
 Alpha virt. eigenvalues --    0.17117   0.17745   0.18248   0.19499   0.22985

 Mulliken charges:
               1
     1  C   -0.396475
     2  C    0.175180
     3  C   -0.311403
     4  C   -0.038245
     5  O   -0.302415
     6  C    0.060439
     7  C    0.080304
     8  C   -0.195585
     9  O   -0.401119
    10  H    0.129112
    11  H    0.116681
    12  H    0.121148
    13  H    0.074486
    14  H    0.119880
    15  H    0.113380
    16  H    0.101547
    17  H    0.142280
    18  H    0.122503
    19  H    0.288303
 Sum of Mulliken charges =   0.00000

 Dipole moment (field-independent basis, Debye):
    X=             -1.2698    Y=             -0.0479    Z=              0.6590  Tot=              1.4314
 Quadrupole moment (field-independent basis, Debye-Ang):
   XX=            -52.6643   YY=            -50.1724   ZZ=            -55.3540
   XY=             -2.5111   XZ=             -6.3158   YZ=             -2.5954

  Exact polarizability: 114.361   0.414  70.803  -2.687  -1.319  60.779
 Approx polarizability: 155.351   7.869  99.129  -1.689  -0.617  91.484

                      1                      2                      3
                      A                      A                      A
 Frequencies --     28.1574                36.8484                95.4136
 Red. masses --      2.9424                 3.3985                 3.9695
 Frc consts  --      0.0014                 0.0027                 0.0213
 IR Inten    --      2.5818                 1.0760                 0.5905

                      4                      5                      6
                      A                      A                      A
 Frequencies --    112.8710               227.9135               244.6670
 Red. masses --      3.4562                 1.1839                 3.0286
 Frc consts  --      0.0259                 0.0362                 0.1068
 IR Inten    --      4.5830                 1.1736                 5.7197

                      7                      8                      9
                      A                      A                      A
 Frequencies --    278.6792               328.4304               348.8531
 Red. masses --      1.8837                 2.1743                 1.8789
 Frc consts  --      0.0862                 0.1382                 0.1347
 IR Inten    --     42.8943                 7.9481                73.5768

                     10                     11                     12
                      A                      A                      A
 Frequencies --    395.7454               433.7559               514.3164
 Red. masses --      4.6832                 2.6205                 5.5470
 Frc consts  --      0.4321                 0.2905                 0.8645
 IR Inten    --     11.1244                 0.9668                 1.4226

                     13                     14                     15
                      A                      A                      A
 Frequencies --    597.7222               673.1204               766.2278
 Red. masses --      7.2430                 2.4631                 2.9998
 Frc consts  --      1.5246                 0.6575                 1.0377
 IR Inten    --     10.2274                 5.3558                 6.0791

                     16                     17                     18
                      A                      A                      A
 Frequencies --    876.4348               897.7266               921.8541
 Red. masses --      3.1522                 2.2718                 1.4707
 Frc consts  --      1.4266                 1.0787                 0.7364
 IR Inten    --      6.7815                18.4031                 3.6971

                     19                     20                     21
                      A                      A                      A
 Frequencies --    951.0869               980.9019               991.6399
 Red. masses --      2.2483                 2.4628                 2.9798
 Frc consts  --      1.1982                 1.3961                 1.7264
 IR Inten    --      7.0554                54.1459                80.3578

                     22                     23                     24
                      A                      A                      A
 Frequencies --   1049.6915              1086.9513              1097.0856
 Red. masses --      5.9875                 2.3251                 1.9112
 Frc consts  --      3.8871                 1.6185                 1.3553
 IR Inten    --     92.1944                54.4120                 7.7957

                     25                     26                     27
                      A                      A                      A
 Frequencies --   1123.3645              1179.4693              1199.0389
 Red. masses --      1.9986                 2.6120                 1.7047
 Frc consts  --      1.4860                 2.1409                 1.4440
 IR Inten    --     11.6125                25.6928                 1.7139

                     28                     29                     30
                      A                      A                      A
 Frequencies --   1215.4031              1249.3744              1259.1651
 Red. masses --      1.0875                 1.4010                 1.2269
 Frc consts  --      0.9465                 1.2885                 1.1461
 IR Inten    --     15.1083                 3.1115                 0.8863

                     31                     32                     33
                      A                      A                      A
 Frequencies --   1317.0605              1359.2597              1360.6788
 Red. masses --      1.4021                 1.3135                 1.2460
 Frc consts  --      1.4330                 1.4298                 1.3592
 IR Inten    --      5.1418                66.6750                16.7647

                     34                     35                     36
                      A                      A                      A
 Frequencies --   1394.0798              1412.0937              1417.9041
 Red. masses --      1.3128                 1.4706                 1.2306
 Frc consts  --      1.5032                 1.7277                 1.4577
 IR Inten    --      1.9544                15.3686                88.4840

                     37                     38                     39
                      A                      A                      A
 Frequencies --   1481.5823              1487.6641              1490.0139
 Red. masses --      1.0509                 1.0781                 1.1176
 Frc consts  --      1.3592                 1.4057                 1.4619
 IR Inten    --      4.0551                 0.6413                 4.0300

                     40                     41                     42
                      A                      A                      A
 Frequencies --   1497.8444              2352.3597              2977.6555
 Red. masses --      1.0623                11.9110                 1.0712
 Frc consts  --      1.4042                38.8333                 5.5956
 IR Inten    --      1.8396                 0.9334                46.9019

                     43                     44                     45
                      A                      A                      A
 Frequencies --   2996.9253              3001.5450              3033.7092
 Red. masses --      1.0825                 1.0851                 1.0350
 Frc consts  --      5.7281                 5.7596                 5.6123
 IR Inten    --     34.3971                64.8995                14.0525

                     46                     47                     48
                      A                      A                      A
 Frequencies --   3062.8986              3083.9944              3105.8193
 Red. masses --      1.0884                 1.0588                 1.1005
 Frc consts  --      6.0158                 5.9333                 6.2547
 IR Inten    --     16.4013                18.0590                19.9664

                     49                     50                     51
                      A                      A                      A
 Frequencies --   3115.2316              3144.3527              3816.6740
 Red. masses --      1.1026                 1.1095                 1.0663
 Frc consts  --      6.3045                 6.4631                 9.1514
 IR Inten    --     25.7543                20.8846                19.3812

 - Thermochemistry -
 -------------------
 Temperature   298.150 Kelvin.  Pressure   1.00000 Atm.
 Atom     1 has atomic number  6 and mass  12.00000

 Molecular mass:   126.06808 amu.
 Principal axes and moments of inertia in atomic units:
                           1         2         3
     Eigenvalues --   517.969012636.794932844.55235
           X            0.99982  -0.01622  -0.01027
           Y            0.01578   0.99900  -0.04178
           Z            0.01093   0.04161   0.99907
 This molecule is an asymmetric top.
 Rotational symmetry number  1.
 Warning -- assumption of classical behavior for rotation
           may cause significant error
 Rotational temperatures (Kelvin)      0.16722     0.03285     0.03045
 Rotational constants (GHZ):           3.48426     0.68445     0.63446
 Zero-point vibrational energy     413137.9 (Joules/Mol)
                                   98.74232 (Kcal/Mol)
 Warning -- explicit consideration of  13 degrees of freedom as
           vibrations may cause significant error
 Vibrational temperatures:     40.51    53.02   137.28   162.40   327.92
          (Kelvin)            352.02   400.96   472.54   501.92   569.39
                              624.08   739.99   859.99   968.47  1102.43
                             1260.99  1291.63  1326.34  1368.40  1411.30
                             1426.75  1510.27  1563.88  1578.46  1616.27
                             1696.99  1725.15  1748.69  1797.57  1811.66
                             1894.95  1955.67  1957.71  2005.77  2031.69
                             2040.05  2131.66  2140.41  2143.79  2155.06
                             3384.52  4284.18  4311.90  4318.55  4364.83
                             4406.82  4437.17  4468.58  4482.12  4524.02
                             5491.34

 Zero-point correction=                           0.157356 (Hartree/Particle)
 Thermal correction to Energy=                    0.167312
 Thermal correction to Enthalpy=                  0.168256
 Thermal correction to Gibbs Free Energy=         0.120376
 Sum of electronic and zero-point Energies=           -422.973846
 Sum of electronic and thermal Energies=              -422.963891
 Sum of electronic and thermal Enthalpies=            -422.962947
 Sum of electronic and thermal Free Energies=         -423.010827

                     E (Thermal)             CV                S
                      KCal/Mol        Cal/Mol-Kelvin    Cal/Mol-Kelvin
 Total                  104.990             34.875            100.772
 Electronic               0.000              0.000              0.000
 Translational            0.889              2.981             40.409
 Rotational               0.889              2.981             29.742
 Vibrational            103.212             28.914             30.622
 Vibration     1          0.593              1.984              5.955
 Vibration     2          0.594              1.982              5.422
 Vibration     3          0.603              1.952              3.546
 Vibration     4          0.607              1.939              3.219
 Vibration     5          0.651              1.798              1.895
 Vibration     6          0.660              1.772              1.769
 Vibration     7          0.679              1.713              1.542
 Vibration     8          0.712              1.619              1.268
 Vibration     9          0.726              1.578              1.171
 Vibration    10          0.762              1.479              0.978
 Vibration    11          0.794              1.397              0.846
 Vibration    12          0.869              1.218              0.623
 Vibration    13          0.956              1.037              0.454

 Optimization completed.
    -- Stationary point found.
 Normal termination of Gaussian 09 at Tue Jan 28 08:45:05 2020.
