 Gaussian 09, Revision D.01,
 Gaussian 09:  ES64L-G09RevD.01 24-Apr-2013

 -----------------------------
 # b3lyp 6-31G(2df,p) opt Freq
 -----------------------------

 -----
 titel
 -----
 Symbolic Z-matrix:
 Charge =  0 Multiplicity = 1

 SCF Done:  E(RB3LYP) =  -423.158392236     A.U. after   13 cycles
 Optimization completed.
    -- Stationary point found.
 Normal termination of Gaussian 09 at Mon Jan 27 23:47:47 2020.

 ----------------------------------------------------------------------
 #N Geom=AllCheck Guess=TCheck SCRF=Check GenChk RB3LYP/6-31G(2df,p) Fr
 eq
 ----------------------------------------------------------------------

 Structure from the checkpoint file:  "/scratch/puck/g09_c2a3a0ba-54e9-4a7a-b505-f90070953363/Gau-104156.chk"
 -----
 titel
 -----
 Charge =  0 Multiplicity = 1

                         Standard orientation:
 ---------------------------------------------------------------------
 Center     Atomic      Atomic             Coordinates (Angstroms)
 Number     Number       Type             X           Y           Z
 ---------------------------------------------------------------------
      1          8           0       -3.052989    0.000001   -0.180479
      2          6           0       -1.669571    0.000000   -0.390156
      3          6           0       -0.710416    0.767933    0.471787
      4          6           0        0.444229    1.555014   -0.133365
      5          6           0        1.686597    0.735133   -0.404503
      6          8           0        2.220374    0.000000    0.701124
      7          6           0        1.686597   -0.735133   -0.404503
      8          6           0        0.444228   -1.555014   -0.133366
      9          6           0       -0.710416   -0.767933    0.471788
     10          1           0       -3.218750   -0.000006    0.767534
     11          1           0       -1.473341    0.000000   -1.460396
     12          1           0       -1.147542    1.213594    1.361414
     13          1           0        0.138068    2.035337   -1.072164
     14          1           0        0.727496    2.368321    0.544380
     15          1           0        2.444742    1.243658   -1.002824
     16          1           0        2.444742   -1.243658   -1.002824
     17          1           0        0.138067   -2.035336   -1.072165
     18          1           0        0.727495   -2.368321    0.544380
     19          1           0       -1.147541   -1.213593    1.361414
 ---------------------------------------------------------------------

 SCF Done:  E(RB3LYP) =  -423.158392236     A.U. after    1 cycles

 The electronic state is 1-A.
 Alpha  occ. eigenvalues --  -19.14212 -19.14173 -10.23390 -10.23358 -10.23278
 Alpha  occ. eigenvalues --  -10.19114 -10.19113 -10.19078 -10.19059  -1.06485
 Alpha  occ. eigenvalues --   -1.02624  -0.85859  -0.75787  -0.73587  -0.63393
 Alpha  occ. eigenvalues --   -0.61449  -0.60468  -0.52150  -0.51658  -0.51053
 Alpha  occ. eigenvalues --   -0.46680  -0.44068  -0.43827  -0.41113  -0.39920
 Alpha  occ. eigenvalues --   -0.39244  -0.37170  -0.37102  -0.35343  -0.32855
 Alpha  occ. eigenvalues --   -0.28992  -0.27724  -0.25870  -0.23529
 Alpha virt. eigenvalues --    0.07264   0.08657   0.10006   0.10428   0.10459
 Alpha virt. eigenvalues --    0.13564   0.14161   0.15056   0.16109   0.16323
 Alpha virt. eigenvalues --    0.17747   0.18807   0.19877   0.20619   0.24134

 Mulliken charges:
               1
     1  O   -0.434200
     2  C    0.138236
     3  C   -0.091900
     4  C   -0.273404
     5  C    0.062808
     6  O   -0.259071
     7  C    0.062808
     8  C   -0.273404
     9  C   -0.091901
    10  H    0.281426
    11  H    0.099522
    12  H    0.081383
    13  H    0.106462
    14  H    0.116470
    15  H    0.085224
    16  H    0.085224
    17  H    0.106462
    18  H    0.116470
    19  H    0.081383
 Sum of Mulliken charges =   0.00000

 Dipole moment (field-independent basis, Debye):
    X=             -0.1232    Y=              0.0000    Z=             -0.2031  Tot=              0.2376
 Quadrupole moment (field-independent basis, Debye-Ang):
   XX=            -60.0322   YY=            -50.3732   ZZ=            -51.3910
   XY=              0.0000   XZ=             -8.8691   YZ=              0.0000

  Exact polarizability:  80.429   0.000  77.501  -4.033   0.000  63.929
 Approx polarizability: 106.100   0.000 113.053   0.475   0.000 104.397

                      1                      2                      3
                      A                      A                      A
 Frequencies --     28.0313                50.7333               235.4340
 Red. masses --      3.1656                 1.0400                 4.5379
 Frc consts  --      0.0015                 0.0016                 0.1482
 IR Inten    --      2.7446                87.4576                 4.3123

                      4                      5                      6
                      A                      A                      A
 Frequencies --    255.0018               304.7393               306.7997
 Red. masses --      3.2805                 2.5296                 4.3968
 Frc consts  --      0.1257                 0.1384                 0.2438
 IR Inten    --      2.6150                 8.9180                 7.6878

                      7                      8                      9
                      A                      A                      A
 Frequencies --    325.0548               455.2681               507.6374
 Red. masses --      2.3127                 2.7876                 6.1878
 Frc consts  --      0.1440                 0.3404                 0.9395
 IR Inten    --      0.5310                 4.9340                 0.2601

                     10                     11                     12
                      A                      A                      A
 Frequencies --    577.8124               757.6176               762.5060
 Red. masses --      3.8987                 5.3203                 3.3308
 Frc consts  --      0.7669                 1.7992                 1.1410
 IR Inten    --      3.7581                 5.3018                 1.2625

                     13                     14                     15
                      A                      A                      A
 Frequencies --    816.1326               837.7450               848.1945
 Red. masses --      2.9094                 1.9829                 2.3467
 Frc consts  --      1.1418                 0.8199                 0.9947
 IR Inten    --     23.2806                13.0589                19.4574

                     16                     17                     18
                      A                      A                      A
 Frequencies --    903.5971               921.0841               949.1422
 Red. masses --      4.3882                 3.2026                 2.2429
 Frc consts  --      2.1110                 1.6009                 1.1905
 IR Inten    --      0.2075                15.6858                 7.2887

                     19                     20                     21
                      A                      A                      A
 Frequencies --    977.3775               998.0563              1068.4813
 Red. masses --      2.6874                 1.6580                 1.4400
 Frc consts  --      1.5126                 0.9731                 0.9686
 IR Inten    --      0.5234                 6.6780                36.6391

                     22                     23                     24
                      A                      A                      A
 Frequencies --   1073.6164              1088.0371              1095.4427
 Red. masses --      1.7574                 1.1641                 1.8075
 Frc consts  --      1.1935                 0.8119                 1.2779
 IR Inten    --      3.0282                 2.5101                18.1646

                     25                     26                     27
                      A                      A                      A
 Frequencies --   1111.6882              1140.2614              1169.6202
 Red. masses --      1.3764                 3.2100                 1.4023
 Frc consts  --      1.0022                 2.4590                 1.1303
 IR Inten    --      1.3567                96.2887                 1.2232

                     28                     29                     30
                      A                      A                      A
 Frequencies --   1222.1497              1250.5250              1255.5882
 Red. masses --      1.2863                 1.3528                 1.1724
 Frc consts  --      1.1320                 1.2465                 1.0890
 IR Inten    --     15.4784                 4.1683                 2.7315

                     31                     32                     33
                      A                      A                      A
 Frequencies --   1281.9838              1309.5152              1339.1094
 Red. masses --      1.3456                 1.3282                 1.3323
 Frc consts  --      1.3029                 1.3419                 1.4076
 IR Inten    --      3.2990                 3.1081                 0.5166

                     34                     35                     36
                      A                      A                      A
 Frequencies --   1348.9815              1361.3045              1390.0291
 Red. masses --      2.1396                 1.8874                 1.2829
 Frc consts  --      2.2940                 2.0607                 1.4605
 IR Inten    --      0.8737                 2.4980                33.0371

                     37                     38                     39
                      A                      A                      A
 Frequencies --   1393.1371              1470.4354              1475.5807
 Red. masses --      1.3287                 1.4276                 1.0812
 Frc consts  --      1.5194                 1.8186                 1.3870
 IR Inten    --      2.1015                34.9016                 4.3775

                     40                     41                     42
                      A                      A                      A
 Frequencies --   1477.0580              1497.7358              3019.4837
 Red. masses --      1.8940                 2.1569                 1.0632
 Frc consts  --      2.4346                 2.8506                 5.7114
 IR Inten    --     10.7180                31.4119                48.0614

                     43                     44                     45
                      A                      A                      A
 Frequencies --   3020.5033              3060.0140              3060.3288
 Red. masses --      1.0631                 1.0984                 1.0982
 Frc consts  --      5.7145                 6.0599                 6.0600
 IR Inten    --      8.7647                 6.5638                22.7558

                     46                     47                     48
                      A                      A                      A
 Frequencies --   3085.5129              3098.7063              3129.8170
 Red. masses --      1.0843                 1.0911                 1.0878
 Frc consts  --      6.0822                 6.1726                 6.2782
 IR Inten    --     27.8432                72.2708                 7.3294

                     49                     50                     51
                      A                      A                      A
 Frequencies --   3132.6381              3145.8011              3822.0260
 Red. masses --      1.0906                 1.0871                 1.0659
 Frc consts  --      6.3057                 6.3382                 9.1739
 IR Inten    --      2.4584                39.7592                21.3517

 - Thermochemistry -
 -------------------
 Temperature   298.150 Kelvin.  Pressure   1.00000 Atm.
 Atom     1 has atomic number  8 and mass  15.99491

 Molecular mass:   126.06808 amu.
 Principal axes and moments of inertia in atomic units:
                           1         2         3
     Eigenvalues --   507.239671450.789411735.60475
           X            0.99974   0.00000  -0.02261
           Y            0.00000   1.00000   0.00000
           Z            0.02261   0.00000   0.99974
 This molecule is an asymmetric top.
 Rotational symmetry number  1.
 Warning -- assumption of classical behavior for rotation
           may cause significant error
 Rotational temperatures (Kelvin)      0.17076     0.05970     0.04990
 Rotational constants (GHZ):           3.55797     1.24397     1.03983
 Zero-point vibrational energy     419967.5 (Joules/Mol)
                                  100.37463 (Kcal/Mol)
 Warning -- explicit consideration of  10 degrees of freedom as
           vibrations may cause significant error
 Vibrational temperatures:     40.33    72.99   338.74   366.89   438.45
          (Kelvin)            441.42   467.68   655.03   730.38   831.34
                             1090.04  1097.07  1174.23  1205.33  1220.36
                             1300.07  1325.23  1365.60  1406.23  1435.98
                             1537.30  1544.69  1565.44  1576.10  1599.47
                             1640.58  1682.82  1758.40  1799.22  1806.51
                             1844.49  1884.10  1926.68  1940.88  1958.61
                             1999.94  2004.41  2115.63  2123.03  2125.15
                             2154.91  4344.36  4345.83  4402.67  4403.13
                             4439.36  4458.34  4503.10  4507.16  4526.10
                             5499.04

 Zero-point correction=                           0.159957 (Hartree/Particle)
 Thermal correction to Energy=                    0.168273
 Thermal correction to Enthalpy=                  0.169217
 Thermal correction to Gibbs Free Energy=         0.125674
 Sum of electronic and zero-point Energies=           -422.998435
 Sum of electronic and thermal Energies=              -422.990119
 Sum of electronic and thermal Enthalpies=            -422.989175
 Sum of electronic and thermal Free Energies=         -423.032719

                     E (Thermal)             CV                S
                      KCal/Mol        Cal/Mol-Kelvin    Cal/Mol-Kelvin
 Total                  105.593             31.171             91.645
 Electronic               0.000              0.000              0.000
 Translational            0.889              2.981             40.409
 Rotational               0.889              2.981             28.637
 Vibrational            103.815             25.210             22.600
 Vibration     1          0.593              1.984              5.964
 Vibration     2          0.595              1.977              4.789
 Vibration     3          0.655              1.787              1.837
 Vibration     4          0.665              1.754              1.696
 Vibration     5          0.696              1.665              1.391
 Vibration     6          0.697              1.661              1.380
 Vibration     7          0.709              1.625              1.285
 Vibration     8          0.814              1.349              0.780
 Vibration     9          0.863              1.233              0.639
 Vibration    10          0.934              1.079              0.489

 Optimization completed.
    -- Stationary point found.
 Normal termination of Gaussian 09 at Tue Jan 28 00:32:08 2020.
