 Gaussian 09, Revision D.01,
 Gaussian 09:  ES64L-G09RevD.01 24-Apr-2013

 -----------------------------
 # b3lyp 6-31G(2df,p) opt Freq
 -----------------------------

 -----
 titel
 -----
 Symbolic Z-matrix:
 Charge =  0 Multiplicity = 1

 SCF Done:  E(RB3LYP) =  -423.181264534     A.U. after   14 cycles
 Optimization completed.
    -- Stationary point found.
 Normal termination of Gaussian 09 at Tue Jan 28 00:03:39 2020.

 ----------------------------------------------------------------------
 #N Geom=AllCheck Guess=TCheck SCRF=Check GenChk RB3LYP/6-31G(2df,p) Fr
 eq
 ----------------------------------------------------------------------

 Structure from the checkpoint file:  "/scratch/puck/g09_dd3833be-bc30-4f23-95a6-8550137a2445/Gau-188097.chk"
 -----
 titel
 -----
 Charge =  0 Multiplicity = 1

                         Standard orientation:
 ---------------------------------------------------------------------
 Center     Atomic      Atomic             Coordinates (Angstroms)
 Number     Number       Type             X           Y           Z
 ---------------------------------------------------------------------
      1          6           0       -3.037235   -0.243061    0.244777
      2          6           0       -1.586190   -0.013059   -0.032655
      3          6           0       -0.949346    1.156898   -0.133133
      4          6           0        0.513341    1.000058   -0.492738
      5          8           0        1.426655    1.806398    0.216575
      6          6           0        0.724616   -0.504401   -0.228431
      7          6           0        2.026408   -1.153972   -0.354539
      8          8           0        1.524898   -0.769020    0.937578
      9          6           0       -0.638686   -1.176843   -0.274716
     10          1           0       -3.172669   -0.861974    1.140978
     11          1           0       -3.573721    0.697643    0.393232
     12          1           0       -3.518149   -0.783636   -0.580732
     13          1           0       -1.406306    2.134007   -0.023006
     14          1           0        0.669803    1.228031   -1.557525
     15          1           0        1.646356    1.307610    1.016526
     16          1           0        2.089280   -2.228396   -0.519873
     17          1           0        2.878018   -0.573672   -0.706397
     18          1           0       -0.827348   -1.646746   -1.250309
     19          1           0       -0.715137   -1.965597    0.482497
 ---------------------------------------------------------------------

 SCF Done:  E(RB3LYP) =  -423.181264534     A.U. after    1 cycles

 The electronic state is 1-A.
 Alpha  occ. eigenvalues --  -19.15899 -19.12561 -10.24381 -10.23702 -10.23180
 Alpha  occ. eigenvalues --  -10.19427 -10.19305 -10.18638 -10.17278  -1.07800
 Alpha  occ. eigenvalues --   -1.00833  -0.84211  -0.73940  -0.70658  -0.67523
 Alpha  occ. eigenvalues --   -0.64173  -0.57317  -0.53820  -0.51097  -0.48547
 Alpha  occ. eigenvalues --   -0.46322  -0.44568  -0.42959  -0.42247  -0.40760
 Alpha  occ. eigenvalues --   -0.39977  -0.37616  -0.37190  -0.34916  -0.32025
 Alpha  occ. eigenvalues --   -0.30947  -0.27802  -0.25982  -0.24351
 Alpha virt. eigenvalues --    0.01808   0.08620   0.09604   0.10032   0.11342
 Alpha virt. eigenvalues --    0.13210   0.14171   0.15491   0.15602   0.16885
 Alpha virt. eigenvalues --    0.17247   0.17828   0.19750   0.20264   0.22831

 Mulliken charges:
               1
     1  C   -0.491436
     2  C    0.326711
     3  C   -0.220296
     4  C    0.039380
     5  O   -0.440175
     6  C    0.362649
     7  C   -0.245465
     8  O   -0.274975
     9  C   -0.387005
    10  H    0.129188
    11  H    0.127411
    12  H    0.126303
    13  H    0.095800
    14  H    0.090393
    15  H    0.288803
    16  H    0.116491
    17  H    0.124203
    18  H    0.112421
    19  H    0.119599
 Sum of Mulliken charges =   0.00000

 Dipole moment (field-independent basis, Debye):
    X=             -1.2750    Y=             -1.7907    Z=             -1.1695  Tot=              2.4900
 Quadrupole moment (field-independent basis, Debye-Ang):
   XX=            -50.8126   YY=            -54.8165   ZZ=            -53.2156
   XY=             -2.6878   XZ=             -1.8889   YZ=              1.7674

  Exact polarizability:  93.255   2.320  81.840  -3.169   0.438  57.685
 Approx polarizability: 119.376   9.828 126.272  -1.824  -0.712  95.288

                      1                      2                      3
                      A                      A                      A
 Frequencies --     92.8407               148.8591               194.3053
 Red. masses --      3.2559                 2.5500                 1.2187
 Frc consts  --      0.0165                 0.0333                 0.0271
 IR Inten    --      0.8288                 0.8575                 0.5499

                      4                      5                      6
                      A                      A                      A
 Frequencies --    245.8315               275.7140               311.4264
 Red. masses --      2.7405                 3.1252                 2.8240
 Frc consts  --      0.0976                 0.1400                 0.1614
 IR Inten    --      0.0886                10.5126                23.3473

                      7                      8                      9
                      A                      A                      A
 Frequencies --    371.4204               421.5838               437.9494
 Red. masses --      2.5746                 2.3213                 1.3944
 Frc consts  --      0.2093                 0.2431                 0.1576
 IR Inten    --      8.1442                 4.6044                73.7092

                     10                     11                     12
                      A                      A                      A
 Frequencies --    474.0886               508.1006               561.6562
 Red. masses --      2.6664                 4.1979                 4.4152
 Frc consts  --      0.3531                 0.6385                 0.8206
 IR Inten    --      4.1004                 0.8239                 5.0077

                     13                     14                     15
                      A                      A                      A
 Frequencies --    665.4365               753.8320               830.3561
 Red. masses --      2.9857                 3.9935                 2.1056
 Frc consts  --      0.7789                 1.3371                 0.8554
 IR Inten    --      2.3741                24.0427                12.1424

                     16                     17                     18
                      A                      A                      A
 Frequencies --    865.6123               875.5927               901.9411
 Red. masses --      1.8366                 3.2455                 1.7377
 Frc consts  --      0.8108                 1.4660                 0.8329
 IR Inten    --     16.7504                 2.3948                 0.4727

                     19                     20                     21
                      A                      A                      A
 Frequencies --    956.6366               996.2483              1008.8518
 Red. masses --      3.3653                 2.0413                 1.5993
 Frc consts  --      1.8145                 1.1937                 0.9591
 IR Inten    --     40.7845                 1.9816                 1.2563

                     22                     23                     24
                      A                      A                      A
 Frequencies --   1039.1352              1067.9618              1101.3532
 Red. masses --      2.0172                 1.7747                 2.6696
 Frc consts  --      1.2833                 1.1926                 1.9079
 IR Inten    --     15.5291                14.2402                69.7260

                     25                     26                     27
                      A                      A                      A
 Frequencies --   1121.8749              1150.7123              1181.3437
 Red. masses --      1.2674                 1.5095                 1.5679
 Frc consts  --      0.9398                 1.1777                 1.2892
 IR Inten    --      0.7516                 2.6173                10.3621

                     28                     29                     30
                      A                      A                      A
 Frequencies --   1191.0609              1226.7154              1253.6545
 Red. masses --      1.5740                 1.8195                 1.4661
 Frc consts  --      1.3156                 1.6132                 1.3576
 IR Inten    --     25.8883                 1.5429                15.1545

                     31                     32                     33
                      A                      A                      A
 Frequencies --   1287.3867              1315.4171              1335.8136
 Red. masses --      1.9223                 1.4248                 2.2539
 Frc consts  --      1.8771                 1.4525                 2.3696
 IR Inten    --      5.2235                 4.7747                11.3964

                     34                     35                     36
                      A                      A                      A
 Frequencies --   1412.9701              1425.0185              1444.6923
 Red. masses --      1.3146                 1.9663                 1.3280
 Frc consts  --      1.5464                 2.3525                 1.6330
 IR Inten    --      1.6241                 8.6104                75.6596

                     37                     38                     39
                      A                      A                      A
 Frequencies --   1472.5111              1478.7519              1486.6459
 Red. masses --      1.1116                 1.0455                 1.0636
 Frc consts  --      1.4201                 1.3469                 1.3849
 IR Inten    --      9.6211                 6.7201                 9.1845

                     40                     41                     42
                      A                      A                      A
 Frequencies --   1526.1722              1714.8586              2994.3172
 Red. masses --      1.5435                 7.0236                 1.0825
 Frc consts  --      2.1181                12.1693                 5.7183
 IR Inten    --      3.0413                 9.4656                38.0323

                     43                     44                     45
                      A                      A                      A
 Frequencies --   3010.2397              3017.4271              3061.6028
 Red. masses --      1.0633                 1.0407                 1.0961
 Frc consts  --      5.6770                 5.5826                 6.0533
 IR Inten    --     19.6858                37.6702                 5.6656

                     46                     47                     48
                      A                      A                      A
 Frequencies --   3063.0698              3086.2189              3114.1429
 Red. masses --      1.0976                 1.0506                 1.0989
 Frc consts  --      6.0678                 5.8959                 6.2792
 IR Inten    --     26.6541                25.3668                18.1444

                     49                     50                     51
                      A                      A                      A
 Frequencies --   3174.8985              3196.4806              3735.6966
 Red. masses --      1.1195                 1.0944                 1.0647
 Frc consts  --      6.6488                 6.5883                 8.7547
 IR Inten    --     13.8890                10.4304                43.2076

 - Thermochemistry -
 -------------------
 Temperature   298.150 Kelvin.  Pressure   1.00000 Atm.
 Atom     1 has atomic number  6 and mass  12.00000

 Molecular mass:   126.06808 amu.
 Principal axes and moments of inertia in atomic units:
                           1         2         3
     Eigenvalues --   632.699571317.634751739.84251
           X            0.99989  -0.00187  -0.01495
           Y            0.00210   0.99988   0.01533
           Z            0.01492  -0.01536   0.99977
 This molecule is an asymmetric top.
 Rotational symmetry number  1.
 Warning -- assumption of classical behavior for rotation
           may cause significant error
 Rotational temperatures (Kelvin)      0.13690     0.06573     0.04978
 Rotational constants (GHZ):           2.85245     1.36968     1.03730
 Zero-point vibrational energy     416219.3 (Joules/Mol)
                                   99.47879 (Kcal/Mol)
 Warning -- explicit consideration of  12 degrees of freedom as
           vibrations may cause significant error
 Vibrational temperatures:    133.58   214.17   279.56   353.70   396.69
          (Kelvin)            448.07   534.39   606.56   630.11   682.11
                              731.04   808.10   957.41  1084.59  1194.70
                             1245.42  1259.78  1297.69  1376.38  1433.38
                             1451.51  1495.08  1536.56  1584.60  1614.13
                             1655.62  1699.69  1713.67  1764.97  1803.73
                             1852.26  1892.59  1921.94  2032.95  2050.28
                             2078.59  2118.61  2127.59  2138.95  2195.82
                             2467.30  4308.15  4331.06  4341.40  4404.96
                             4407.07  4440.38  4480.55  4567.97  4599.02
                             5374.83

 Zero-point correction=                           0.158530 (Hartree/Particle)
 Thermal correction to Energy=                    0.167069
 Thermal correction to Enthalpy=                  0.168013
 Thermal correction to Gibbs Free Energy=         0.125637
 Sum of electronic and zero-point Energies=           -423.022735
 Sum of electronic and thermal Energies=              -423.014196
 Sum of electronic and thermal Enthalpies=            -423.013252
 Sum of electronic and thermal Free Energies=         -423.055627

                     E (Thermal)             CV                S
                      KCal/Mol        Cal/Mol-Kelvin    Cal/Mol-Kelvin
 Total                  104.837             33.063             89.187
 Electronic               0.000              0.000              0.000
 Translational            0.889              2.981             40.409
 Rotational               0.889              2.981             28.763
 Vibrational            103.060             27.101             20.015
 Vibration     1          0.602              1.954              3.599
 Vibration     2          0.618              1.904              2.687
 Vibration     3          0.635              1.848              2.186
 Vibration     4          0.660              1.770              1.760
 Vibration     5          0.677              1.718              1.560
 Vibration     6          0.700              1.652              1.355
 Vibration     7          0.743              1.531              1.074
 Vibration     8          0.784              1.423              0.887
 Vibration     9          0.798              1.387              0.833
 Vibration    10          0.831              1.308              0.726
 Vibration    11          0.863              1.232              0.638
 Vibration    12          0.917              1.114              0.521

 Optimization completed.
    -- Stationary point found.
 Normal termination of Gaussian 09 at Tue Jan 28 00:48:54 2020.
