 Gaussian 09, Revision D.01,
 Gaussian 09:  ES64L-G09RevD.01 24-Apr-2013

 -----------------------------
 # b3lyp 6-31G(2df,p) opt Freq
 -----------------------------

 -----
 titel
 -----
 Symbolic Z-matrix:
 Charge =  0 Multiplicity = 1

 SCF Done:  E(RB3LYP) =  -423.155205291     A.U. after   15 cycles
 Optimization completed.
    -- Stationary point found.
 Normal termination of Gaussian 09 at Mon Jan 27 15:37:05 2020.

 ----------------------------------------------------------------------
 #N Geom=AllCheck Guess=TCheck SCRF=Check GenChk RB3LYP/6-31G(2df,p) Fr
 eq
 ----------------------------------------------------------------------

 Structure from the checkpoint file:  "/scratch/puck/g09_3d4cab71-8171-4619-bef8-281fc636107d/Gau-36846.chk"
 -----
 titel
 -----
 Charge =  0 Multiplicity = 1

                         Standard orientation:
 ---------------------------------------------------------------------
 Center     Atomic      Atomic             Coordinates (Angstroms)
 Number     Number       Type             X           Y           Z
 ---------------------------------------------------------------------
      1          6           0        2.880865   -0.321324   -0.803376
      2          6           0        1.655355    0.137183   -0.012483
      3          8           0        1.744224   -0.254369    1.355822
      4          6           0        0.367024   -0.485966   -0.548698
      5          6           0       -0.896793   -0.005827    0.218735
      6          6           0       -2.102462   -0.794377   -0.302002
      7          8           0       -2.486319   -1.821772    0.187350
      8          6           0       -1.129305    1.425496    0.069336
      9          6           0       -1.359215    2.595102   -0.089702
     10          1           0        2.808678   -0.021565   -1.854023
     11          1           0        3.793236    0.125763   -0.393021
     12          1           0        2.984272   -1.409826   -0.754637
     13          1           0        1.565989    1.232165   -0.085688
     14          1           0        2.498148    0.195224    1.749197
     15          1           0        0.265948   -0.250317   -1.613425
     16          1           0        0.430533   -1.574671   -0.445302
     17          1           0       -0.760327   -0.266538    1.272508
     18          1           0       -2.585288   -0.354522   -1.202659
     19          1           0       -1.557250    3.631698   -0.209182
 ---------------------------------------------------------------------

 SCF Done:  E(RB3LYP) =  -423.155205291     A.U. after    1 cycles

 The electronic state is 1-A.
 Alpha  occ. eigenvalues --  -19.14469 -19.14090 -10.27598 -10.24096 -10.21871
 Alpha  occ. eigenvalues --  -10.20032 -10.19023 -10.18342 -10.18194  -1.05258
 Alpha  occ. eigenvalues --   -1.02353  -0.82781  -0.76711  -0.72855  -0.67568
 Alpha  occ. eigenvalues --   -0.59594  -0.58775  -0.54273  -0.52141  -0.49103
 Alpha  occ. eigenvalues --   -0.46011  -0.45769  -0.43235  -0.42959  -0.40308
 Alpha  occ. eigenvalues --   -0.39138  -0.37594  -0.37032  -0.36250  -0.32917
 Alpha  occ. eigenvalues --   -0.28836  -0.27638  -0.27203  -0.24929
 Alpha virt. eigenvalues --   -0.02795   0.04402   0.05140   0.06757   0.11493
 Alpha virt. eigenvalues --    0.11945   0.12673   0.13144   0.14384   0.15303
 Alpha virt. eigenvalues --    0.16756   0.17253   0.19069   0.20673   0.23016

 Mulliken charges:
               1
     1  C   -0.403583
     2  C    0.117164
     3  O   -0.431593
     4  C   -0.192220
     5  C   -0.229637
     6  C    0.149332
     7  O   -0.243448
     8  C    0.316132
     9  C   -0.475877
    10  H    0.117999
    11  H    0.108115
    12  H    0.127625
    13  H    0.083562
    14  H    0.285564
    15  H    0.106786
    16  H    0.125408
    17  H    0.147115
    18  H    0.089568
    19  H    0.201988
 Sum of Mulliken charges =   0.00000

 Dipole moment (field-independent basis, Debye):
    X=              2.5968    Y=              2.4293    Z=             -1.1987  Tot=              3.7525
 Quadrupole moment (field-independent basis, Debye-Ang):
   XX=            -52.5832   YY=            -54.2100   ZZ=            -52.7346
   XY=             -4.1615   XZ=              3.0103   YZ=              2.0219

  Exact polarizability:  83.278  -1.769  90.570   1.536  -3.231  63.309
 Approx polarizability: 102.709  -0.605 147.427   2.185 -12.004  96.332

                      1                      2                      3
                      A                      A                      A
 Frequencies --     35.4224                51.2889                94.9798
 Red. masses --      4.6375                 4.2222                 3.4789
 Frc consts  --      0.0034                 0.0065                 0.0185
 IR Inten    --      5.3549                 0.2942                 3.1121

                      4                      5                      6
                      A                      A                      A
 Frequencies --    122.3559               191.0492               210.4818
 Red. masses --      4.4943                 2.5040                 2.9790
 Frc consts  --      0.0396                 0.0538                 0.0778
 IR Inten    --      0.1081                 4.6630                 9.1131

                      7                      8                      9
                      A                      A                      A
 Frequencies --    241.2922               263.8843               282.4846
 Red. masses --      1.0439                 1.1451                 3.7565
 Frc consts  --      0.0358                 0.0470                 0.1766
 IR Inten    --      3.8397                75.9068                 6.9864

                     10                     11                     12
                      A                      A                      A
 Frequencies --    344.4634               439.7871               466.8984
 Red. masses --      2.8782                 3.7580                 3.5217
 Frc consts  --      0.2012                 0.4282                 0.4523
 IR Inten    --      0.3910                29.5273                 8.7837

                     13                     14                     15
                      A                      A                      A
 Frequencies --    483.2851               518.1419               589.0924
 Red. masses --      2.3734                 6.3569                 3.8234
 Frc consts  --      0.3266                 1.0055                 0.7818
 IR Inten    --      2.2030                 7.4699                 7.9114

                     16                     17                     18
                      A                      A                      A
 Frequencies --    633.3790               647.2752               831.3445
 Red. masses --      1.2104                 1.2253                 2.3192
 Frc consts  --      0.2861                 0.3025                 0.9444
 IR Inten    --     45.9255                46.0079                 4.2681

                     19                     20                     21
                      A                      A                      A
 Frequencies --    841.4165               922.2700               974.3213
 Red. masses --      2.2147                 2.1208                 1.8541
 Frc consts  --      0.9238                 1.0628                 1.0370
 IR Inten    --      0.3602                 9.6323                10.3856

                     22                     23                     24
                      A                      A                      A
 Frequencies --    979.0574              1030.1206              1077.0812
 Red. masses --      2.0202                 4.3665                 1.9764
 Frc consts  --      1.1409                 2.7300                 1.3509
 IR Inten    --      4.5167                58.5625                16.0892

                     25                     26                     27
                      A                      A                      A
 Frequencies --   1081.7519              1125.6708              1139.5157
 Red. masses --      2.6557                 1.8430                 2.4768
 Frc consts  --      1.8310                 1.3759                 1.8949
 IR Inten    --     10.8494                21.1361                34.4196

                     28                     29                     30
                      A                      A                      A
 Frequencies --   1191.5102              1237.8706              1300.3752
 Red. masses --      1.3299                 1.2318                 1.2663
 Frc consts  --      1.1124                 1.1121                 1.2616
 IR Inten    --      0.4187                 9.4781                41.3063

                     31                     32                     33
                      A                      A                      A
 Frequencies --   1332.2602              1344.8128              1388.6814
 Red. masses --      1.3130                 1.2581                 1.3001
 Frc consts  --      1.3731                 1.3405                 1.4772
 IR Inten    --      8.4938                 8.6989                 8.4857

                     34                     35                     36
                      A                      A                      A
 Frequencies --   1406.4682              1419.1467              1426.1147
 Red. masses --      1.2855                 1.1955                 1.4146
 Frc consts  --      1.4982                 1.4186                 1.6951
 IR Inten    --      7.9502                 4.8301                 9.3540

                     37                     38                     39
                      A                      A                      A
 Frequencies --   1470.2856              1492.7486              1498.4233
 Red. masses --      1.0994                 1.0560                 1.0872
 Frc consts  --      1.4003                 1.3864                 1.4382
 IR Inten    --      3.3234                 3.7990                 2.9353

                     40                     41                     42
                      A                      A                      A
 Frequencies --   1836.5191              2232.0863              2888.7310
 Red. masses --     10.4253                 5.9410                 1.0844
 Frc consts  --     20.7171                17.4394                 5.3316
 IR Inten    --    197.0550                 0.8387                88.3380

                     43                     44                     45
                      A                      A                      A
 Frequencies --   2986.3407              3029.7472              3043.7189
 Red. masses --      1.0827                 1.0358                 1.0579
 Frc consts  --      5.6889                 5.6017                 5.7743
 IR Inten    --     29.0954                17.2306                19.6636

                     46                     47                     48
                      A                      A                      A
 Frequencies --   3077.3928              3096.1814              3098.1202
 Red. masses --      1.0842                 1.1018                 1.1015
 Frc consts  --      6.0496                 6.2230                 6.2291
 IR Inten    --      1.0848                13.3997                23.8443

                     49                     50                     51
                      A                      A                      A
 Frequencies --   3114.2848              3502.4193              3827.7744
 Red. masses --      1.1022                 1.1617                 1.0663
 Frc consts  --      6.2983                 8.3963                 9.2051
 IR Inten    --     28.7452                69.1403                21.4765

 - Thermochemistry -
 -------------------
 Temperature   298.150 Kelvin.  Pressure   1.00000 Atm.
 Atom     1 has atomic number  6 and mass  12.00000

 Molecular mass:   126.06808 amu.
 Principal axes and moments of inertia in atomic units:
                           1         2         3
     Eigenvalues --   881.732061741.805582221.83679
           X            0.99961  -0.02677  -0.00848
           Y            0.02688   0.99956   0.01282
           Z            0.00813  -0.01304   0.99988
 This molecule is an asymmetric top.
 Rotational symmetry number  1.
 Warning -- assumption of classical behavior for rotation
           may cause significant error
 Rotational temperatures (Kelvin)      0.09823     0.04973     0.03898
 Rotational constants (GHZ):           2.04681     1.03613     0.81227
 Zero-point vibrational energy     405893.7 (Joules/Mol)
                                   97.01092 (Kcal/Mol)
 Warning -- explicit consideration of  15 degrees of freedom as
           vibrations may cause significant error
 Vibrational temperatures:     50.96    73.79   136.65   176.04   274.88
          (Kelvin)            302.84   347.17   379.67   406.43   495.61
                              632.75   671.76   695.34   745.49   847.57
                              911.29   931.28  1196.12  1210.61  1326.94
                             1401.83  1408.64  1482.11  1549.68  1556.40
                             1619.59  1639.51  1714.32  1781.02  1870.95
                             1916.82  1934.88  1998.00  2023.59  2041.83
                             2051.86  2115.41  2147.73  2155.89  2642.34
                             3211.47  4156.23  4296.67  4359.12  4379.23
                             4427.68  4454.71  4457.50  4480.76  5039.19
                             5507.31

 Zero-point correction=                           0.154597 (Hartree/Particle)
 Thermal correction to Energy=                    0.165380
 Thermal correction to Enthalpy=                  0.166324
 Thermal correction to Gibbs Free Energy=         0.117522
 Sum of electronic and zero-point Energies=           -423.000609
 Sum of electronic and thermal Energies=              -422.989825
 Sum of electronic and thermal Enthalpies=            -422.988881
 Sum of electronic and thermal Free Energies=         -423.037684

                     E (Thermal)             CV                S
                      KCal/Mol        Cal/Mol-Kelvin    Cal/Mol-Kelvin
 Total                  103.777             37.829            102.713
 Electronic               0.000              0.000              0.000
 Translational            0.889              2.981             40.409
 Rotational               0.889              2.981             29.613
 Vibrational            102.000             31.867             32.692
 Vibration     1          0.594              1.982              5.500
 Vibration     2          0.596              1.977              4.767
 Vibration     3          0.603              1.953              3.555
 Vibration     4          0.610              1.930              3.063
 Vibration     5          0.634              1.852              2.218
 Vibration     6          0.643              1.825              2.039
 Vibration     7          0.658              1.777              1.793
 Vibration     8          0.670              1.739              1.636
 Vibration     9          0.682              1.706              1.519
 Vibration    10          0.723              1.587              1.191
 Vibration    11          0.800              1.383              0.827
 Vibration    12          0.824              1.323              0.746
 Vibration    13          0.839              1.287              0.701
 Vibration    14          0.873              1.210              0.614
 Vibration    15          0.946              1.055              0.469

 Optimization completed.
    -- Stationary point found.
 Normal termination of Gaussian 09 at Mon Jan 27 16:12:25 2020.
