 Gaussian 09, Revision D.01,
 Gaussian 09:  ES64L-G09RevD.01 24-Apr-2013

 -----------------------------
 # b3lyp 6-31G(2df,p) opt Freq
 -----------------------------

 -----
 titel
 -----
 Symbolic Z-matrix:
 Charge =  0 Multiplicity = 1

 SCF Done:  E(RB3LYP) =  -423.203390396     A.U. after   14 cycles
 Optimization completed.
    -- Stationary point found.
 Normal termination of Gaussian 09 at Mon Jan 27 22:56:19 2020.

 ----------------------------------------------------------------------
 #N Geom=AllCheck Guess=TCheck SCRF=Check GenChk RB3LYP/6-31G(2df,p) Fr
 eq
 ----------------------------------------------------------------------

 Structure from the checkpoint file:  "/scratch/puck/g09_a93a621d-033c-4ae0-a36b-13caa684c337/Gau-183368.chk"
 -----
 titel
 -----
 Charge =  0 Multiplicity = 1

                         Standard orientation:
 ---------------------------------------------------------------------
 Center     Atomic      Atomic             Coordinates (Angstroms)
 Number     Number       Type             X           Y           Z
 ---------------------------------------------------------------------
      1          6           0        2.498707    0.222545    0.375418
      2          6           0        1.258926   -0.072695   -0.469189
      3          6           0        0.480883   -1.384797   -0.181105
      4          6           0       -0.345722   -1.038911    1.092396
      5          6           0       -1.071070   -0.059850    0.100688
      6          8           0       -2.279533    0.544270    0.347499
      7          6           0       -0.832422   -1.166630   -0.985924
      8          6           0        0.078096    0.875353   -0.214458
      9          8           0        0.010916    2.079949   -0.224363
     10          1           0        2.295789    0.124778    1.446127
     11          1           0        3.312250   -0.464368    0.123081
     12          1           0        2.843961    1.244317    0.193668
     13          1           0        1.528575   -0.014393   -1.531894
     14          1           0        1.036903   -2.317156   -0.254563
     15          1           0       -1.011037   -1.849592    1.396001
     16          1           0        0.162648   -0.618831    1.963866
     17          1           0       -2.120383    1.499171    0.278015
     18          1           0       -1.544307   -1.986718   -0.872448
     19          1           0       -0.759865   -0.861052   -2.033898
 ---------------------------------------------------------------------

 SCF Done:  E(RB3LYP) =  -423.203390396     A.U. after    1 cycles

 The electronic state is 1-A.
 Alpha  occ. eigenvalues --  -19.14569 -19.14326 -10.26776 -10.24741 -10.20689
 Alpha  occ. eigenvalues --  -10.20367 -10.19665 -10.19659 -10.18709  -1.05964
 Alpha  occ. eigenvalues --   -1.02778  -0.89833  -0.76834  -0.67976  -0.67213
 Alpha  occ. eigenvalues --   -0.65670  -0.56226  -0.55211  -0.50373  -0.48649
 Alpha  occ. eigenvalues --   -0.47377  -0.44450  -0.42383  -0.41894  -0.39332
 Alpha  occ. eigenvalues --   -0.38579  -0.37786  -0.36237  -0.35777  -0.35291
 Alpha  occ. eigenvalues --   -0.32841  -0.32432  -0.26959  -0.24412
 Alpha virt. eigenvalues --   -0.01620   0.08595   0.09942   0.11438   0.11926
 Alpha virt. eigenvalues --    0.12876   0.13381   0.14809   0.16711   0.17444
 Alpha virt. eigenvalues --    0.18443   0.18801   0.19921   0.20681   0.22653

 Mulliken charges:
               1
     1  C   -0.420891
     2  C   -0.085239
     3  C   -0.045033
     4  C   -0.296427
     5  C    0.340528
     6  O   -0.486224
     7  C   -0.298061
     8  C    0.374486
     9  O   -0.370781
    10  H    0.123918
    11  H    0.119980
    12  H    0.139214
    13  H    0.100707
    14  H    0.076478
    15  H    0.115359
    16  H    0.105297
    17  H    0.290838
    18  H    0.114366
    19  H    0.101483
 Sum of Mulliken charges =   0.00000

 Dipole moment (field-independent basis, Debye):
    X=              1.5047    Y=             -2.0826    Z=             -0.2314  Tot=              2.5797
 Quadrupole moment (field-independent basis, Debye-Ang):
   XX=            -55.4215   YY=            -55.9317   ZZ=            -51.9229
   XY=             -1.0427   XZ=              0.5651   YZ=              0.7057

  Exact polarizability:  80.880   0.755  78.650  -0.091  -0.007  65.747
 Approx polarizability: 110.770  -0.526 124.467  -1.894  -0.677 101.140

                      1                      2                      3
                      A                      A                      A
 Frequencies --    117.0622               197.0944               213.3496
 Red. masses --      5.3888                 1.0290                 3.0613
 Frc consts  --      0.0435                 0.0236                 0.0821
 IR Inten    --      0.0944                 0.2160                 0.9225

                      4                      5                      6
                      A                      A                      A
 Frequencies --    252.7340               267.4158               362.2249
 Red. masses --      2.7680                 5.8449                 3.5557
 Frc consts  --      0.1042                 0.2463                 0.2749
 IR Inten    --      1.2076                22.3248                20.6845

                      7                      8                      9
                      A                      A                      A
 Frequencies --    446.6744               463.9964               468.6649
 Red. masses --      1.2137                 2.8618                 2.0621
 Frc consts  --      0.1427                 0.3630                 0.2669
 IR Inten    --     40.5235                 2.4613                 4.8560

                     10                     11                     12
                      A                      A                      A
 Frequencies --    528.0522               578.0841               655.2081
 Red. masses --      3.7103                 3.2455                 4.3529
 Frc consts  --      0.6096                 0.6390                 1.1010
 IR Inten    --      1.6602                 2.5470                 2.3589

                     13                     14                     15
                      A                      A                      A
 Frequencies --    728.8719               767.9157               839.3398
 Red. masses --      3.5533                 3.2363                 2.1765
 Frc consts  --      1.1122                 1.1244                 0.9034
 IR Inten    --      6.1805                 5.7206                 3.5803

                     16                     17                     18
                      A                      A                      A
 Frequencies --    867.2219               915.3313               921.4217
 Red. masses --      2.4556                 2.5402                 2.5924
 Frc consts  --      1.0881                 1.2540                 1.2968
 IR Inten    --      0.1782                 2.1389                 3.7134

                     19                     20                     21
                      A                      A                      A
 Frequencies --    964.6253               970.7980              1001.3520
 Red. masses --      2.4930                 1.5805                 2.1607
 Frc consts  --      1.3668                 0.8776                 1.2765
 IR Inten    --     21.0573                 2.1758                33.5809

                     22                     23                     24
                      A                      A                      A
 Frequencies --   1020.7283              1052.5871              1091.3635
 Red. masses --      1.1351                 1.5215                 1.4107
 Frc consts  --      0.6968                 0.9932                 0.9900
 IR Inten    --      0.9054                 7.8915                 2.1197

                     25                     26                     27
                      A                      A                      A
 Frequencies --   1102.6917              1141.7837              1157.7154
 Red. masses --      1.9199                 1.7180                 2.1488
 Frc consts  --      1.3754                 1.3196                 1.6969
 IR Inten    --      3.2281                 0.1031               116.1584

                     28                     29                     30
                      A                      A                      A
 Frequencies --   1166.7627              1211.5871              1227.8313
 Red. masses --      1.6570                 1.5357                 1.5658
 Frc consts  --      1.3290                 1.3282                 1.3908
 IR Inten    --      1.5617                 3.7704                 1.2418

                     31                     32                     33
                      A                      A                      A
 Frequencies --   1264.2239              1303.1636              1345.0457
 Red. masses --      1.7592                 1.5530                 1.7139
 Frc consts  --      1.6566                 1.5539                 1.8269
 IR Inten    --      5.8796                19.9462                23.6617

                     34                     35                     36
                      A                      A                      A
 Frequencies --   1369.7608              1407.6289              1412.3923
 Red. masses --      4.0030                 1.2699                 1.4185
 Frc consts  --      4.4252                 1.4825                 1.6672
 IR Inten    --     64.0401                20.5378                33.6399

                     37                     38                     39
                      A                      A                      A
 Frequencies --   1483.4888              1497.4985              1499.1883
 Red. masses --      1.0861                 1.0495                 1.0562
 Frc consts  --      1.4083                 1.3866                 1.3986
 IR Inten    --      0.5948                 3.6746                 6.8729

                     40                     41                     42
                      A                      A                      A
 Frequencies --   1523.4061              1850.1125              3024.7278
 Red. masses --      1.1541                12.5267                 1.0824
 Frc consts  --      1.5781                25.2629                 5.8346
 IR Inten    --      1.6498               219.8267                11.0221

                     43                     44                     45
                      A                      A                      A
 Frequencies --   3040.8310              3055.6417              3065.5623
 Red. masses --      1.0350                 1.0579                 1.0572
 Frc consts  --      5.6385                 5.8194                 5.8539
 IR Inten    --     19.6401                40.8558                18.1167

                     46                     47                     48
                      A                      A                      A
 Frequencies --   3110.0389              3116.8705              3124.5499
 Red. masses --      1.1017                 1.1016                 1.1086
 Frc consts  --      6.2784                 6.3057                 6.3768
 IR Inten    --     22.2347                13.8768                18.6257

                     49                     50                     51
                      A                      A                      A
 Frequencies --   3128.8896              3137.2508              3692.7474
 Red. masses --      1.1082                 1.0913                 1.0651
 Frc consts  --      6.3922                 6.3287                 8.5575
 IR Inten    --     21.3239                30.1029                43.9936

 - Thermochemistry -
 -------------------
 Temperature   298.150 Kelvin.  Pressure   1.00000 Atm.
 Atom     1 has atomic number  6 and mass  12.00000

 Molecular mass:   126.06808 amu.
 Principal axes and moments of inertia in atomic units:
                           1         2         3
     Eigenvalues --   726.461011033.112441405.90489
           X            0.99964   0.02200   0.01529
           Y           -0.02215   0.99970   0.01025
           Z           -0.01506  -0.01059   0.99983
 This molecule is an asymmetric top.
 Rotational symmetry number  1.
 Warning -- assumption of classical behavior for rotation
           may cause significant error
 Rotational temperatures (Kelvin)      0.11923     0.08384     0.06161
 Rotational constants (GHZ):           2.48429     1.74690     1.28369
 Zero-point vibrational energy     419611.2 (Joules/Mol)
                                  100.28947 (Kcal/Mol)
 Warning -- explicit consideration of  11 degrees of freedom as
           vibrations may cause significant error
 Vibrational temperatures:    168.43   283.57   306.96   363.63   384.75
          (Kelvin)            521.16   642.66   667.59   674.30   759.75
                              831.73   942.70  1048.68  1104.86  1207.62
                             1247.74  1316.96  1325.72  1387.88  1396.76
                             1440.72  1468.60  1514.44  1570.23  1586.53
                             1642.77  1665.69  1678.71  1743.20  1766.57
                             1818.93  1874.96  1935.22  1970.78  2025.26
                             2032.12  2134.41  2154.56  2156.99  2191.84
                             2661.90  4351.90  4375.07  4396.38  4410.65
                             4474.65  4484.48  4495.52  4501.77  4513.80
                             5313.03

 Zero-point correction=                           0.159821 (Hartree/Particle)
 Thermal correction to Energy=                    0.167853
 Thermal correction to Enthalpy=                  0.168797
 Thermal correction to Gibbs Free Energy=         0.127711
 Sum of electronic and zero-point Energies=           -423.043569
 Sum of electronic and thermal Energies=              -423.035538
 Sum of electronic and thermal Enthalpies=            -423.034594
 Sum of electronic and thermal Free Energies=         -423.075679

                     E (Thermal)             CV                S
                      KCal/Mol        Cal/Mol-Kelvin    Cal/Mol-Kelvin
 Total                  105.329             31.993             86.472
 Electronic               0.000              0.000              0.000
 Translational            0.889              2.981             40.409
 Rotational               0.889              2.981             28.447
 Vibrational            103.552             26.031             17.616
 Vibration     1          0.608              1.935              3.148
 Vibration     2          0.636              1.844              2.160
 Vibration     3          0.644              1.821              2.015
 Vibration     4          0.664              1.758              1.711
 Vibration     5          0.673              1.733              1.613
 Vibration     6          0.736              1.550              1.113
 Vibration     7          0.806              1.368              0.806
 Vibration     8          0.822              1.330              0.755
 Vibration     9          0.826              1.320              0.741
 Vibration    10          0.883              1.188              0.592
 Vibration    11          0.935              1.079              0.489

 Normal termination of Gaussian 09 at Mon Jan 27 23:41:39 2020.
