 Gaussian 09, Revision D.01,
 Gaussian 09:  ES64L-G09RevD.01 24-Apr-2013

 -----------------------------
 # b3lyp 6-31G(2df,p) opt Freq
 -----------------------------

 -----
 titel
 -----
 Symbolic Z-matrix:
 Charge =  0 Multiplicity = 1

 SCF Done:  E(RB3LYP) =  -423.180158195     A.U. after   14 cycles
 Optimization completed.
    -- Stationary point found.
 Normal termination of Gaussian 09 at Tue Jan 28 02:50:54 2020.

 ----------------------------------------------------------------------
 #N Geom=AllCheck Guess=TCheck SCRF=Check GenChk RB3LYP/6-31G(2df,p) Fr
 eq
 ----------------------------------------------------------------------

 Structure from the checkpoint file:  "/scratch/puck/g09_7126892d-4828-4e69-9086-c7ad8f1f5e7d/Gau-113523.chk"
 -----
 titel
 -----
 Charge =  0 Multiplicity = 1

                         Standard orientation:
 ---------------------------------------------------------------------
 Center     Atomic      Atomic             Coordinates (Angstroms)
 Number     Number       Type             X           Y           Z
 ---------------------------------------------------------------------
      1          6           0        0.793569    2.110696    0.392476
      2          6           0        0.368149    0.691213    0.088044
      3          6           0       -0.590546    0.485121   -1.126635
      4          6           0       -1.622021   -0.133733   -0.163813
      5          8           0       -2.784638   -0.402057   -0.265221
      6          6           0       -0.633447   -0.144012    0.996556
      7          6           0        0.356095   -1.356244    0.907932
      8          6           0        1.411201   -0.457097    0.228600
      9          8           0        1.960269   -1.027418   -0.937781
     10          1           0        1.463245    2.497891   -0.385840
     11          1           0       -0.068271    2.785159    0.445428
     12          1           0        1.324127    2.173415    1.349053
     13          1           0       -0.941741    1.402533   -1.608199
     14          1           0       -0.210897   -0.195436   -1.894165
     15          1           0       -0.976575    0.146775    1.989830
     16          1           0        0.648491   -1.779195    1.869889
     17          1           0        0.012361   -2.167683    0.262127
     18          1           0        2.203211   -0.164213    0.933369
     19          1           0        2.642998   -0.439109   -1.276433
 ---------------------------------------------------------------------

 SCF Done:  E(RB3LYP) =  -423.180158195     A.U. after    1 cycles

 The electronic state is 1-A.
 Alpha  occ. eigenvalues --  -19.14930 -19.12952 -10.26322 -10.23995 -10.20182
 Alpha  occ. eigenvalues --  -10.19402 -10.19282 -10.18736 -10.18563  -1.03874
 Alpha  occ. eigenvalues --   -1.03119  -0.87877  -0.75308  -0.73113  -0.66405
 Alpha  occ. eigenvalues --   -0.61792  -0.55976  -0.52590  -0.51144  -0.48463
 Alpha  occ. eigenvalues --   -0.46136  -0.44495  -0.42352  -0.41124  -0.40550
 Alpha  occ. eigenvalues --   -0.39759  -0.38908  -0.37092  -0.33887  -0.33210
 Alpha  occ. eigenvalues --   -0.31909  -0.29266  -0.26743  -0.23524
 Alpha virt. eigenvalues --   -0.01392   0.05992   0.09009   0.10057   0.11485
 Alpha virt. eigenvalues --    0.12707   0.13923   0.14512   0.15202   0.17345
 Alpha virt. eigenvalues --    0.17504   0.18345   0.19311   0.20090   0.21411

 Mulliken charges:
               1
     1  C   -0.503350
     2  C    0.310617
     3  C   -0.416803
     4  C    0.424255
     5  O   -0.309427
     6  C   -0.202667
     7  C   -0.263586
     8  C    0.081357
     9  O   -0.421891
    10  H    0.115714
    11  H    0.123779
    12  H    0.117551
    13  H    0.125560
    14  H    0.139929
    15  H    0.084540
    16  H    0.116008
    17  H    0.126652
    18  H    0.066369
    19  H    0.285395
 Sum of Mulliken charges =   0.00000

 Dipole moment (field-independent basis, Debye):
    X=              3.5131    Y=              1.7746    Z=              0.6512  Tot=              3.9894
 Quadrupole moment (field-independent basis, Debye-Ang):
   XX=            -60.0532   YY=            -53.6592   ZZ=            -50.9545
   XY=              0.2953   XZ=             -1.6123   YZ=             -2.1176

  Exact polarizability:  83.122   2.340  72.535   0.774  -3.240  71.402
 Approx polarizability: 123.912   4.328 102.401   0.093  -3.126 107.426

                      1                      2                      3
                      A                      A                      A
 Frequencies --     62.5799               144.2351               211.4363
 Red. masses --      4.9374                 3.0317                 1.1441
 Frc consts  --      0.0114                 0.0372                 0.0301
 IR Inten    --      1.9203                 1.7832                 0.0616

                      4                      5                      6
                      A                      A                      A
 Frequencies --    240.2685               267.9899               301.4186
 Red. masses --      2.8443                 2.5093                 1.1376
 Frc consts  --      0.0967                 0.1062                 0.0609
 IR Inten    --      0.9448                 4.1298               108.9306

                      7                      8                      9
                      A                      A                      A
 Frequencies --    314.3971               404.1015               424.2297
 Red. masses --      2.1902                 2.6021                 5.0217
 Frc consts  --      0.1276                 0.2504                 0.5325
 IR Inten    --      5.3669                 8.7335                 2.4518

                     10                     11                     12
                      A                      A                      A
 Frequencies --    511.3290               528.4719               584.8132
 Red. masses --      2.6202                 2.9482                 3.0830
 Frc consts  --      0.4036                 0.4851                 0.6212
 IR Inten    --      1.3028                 4.4866                 0.5671

                     13                     14                     15
                      A                      A                      A
 Frequencies --    631.3277               743.9183               762.5918
 Red. masses --      3.6604                 2.5216                 2.1707
 Frc consts  --      0.8596                 0.8222                 0.7438
 IR Inten    --      1.7695                 2.1551                 1.1867

                     16                     17                     18
                      A                      A                      A
 Frequencies --    838.4940               875.1776               916.6128
 Red. masses --      2.1390                 2.6705                 1.8481
 Frc consts  --      0.8861                 1.2051                 0.9148
 IR Inten    --      4.4094                 0.7456                 4.5421

                     19                     20                     21
                      A                      A                      A
 Frequencies --    943.8124               970.4745              1004.4320
 Red. masses --      2.7635                 2.0989                 1.8382
 Frc consts  --      1.4504                 1.1647                 1.0927
 IR Inten    --      4.4643                 7.7040                 9.9189

                     22                     23                     24
                      A                      A                      A
 Frequencies --   1029.1846              1077.4092              1112.0563
 Red. masses --      1.6738                 2.5536                 1.9205
 Frc consts  --      1.0446                 1.7465                 1.3993
 IR Inten    --     45.9629                27.1079                33.0321

                     25                     26                     27
                      A                      A                      A
 Frequencies --   1117.8863              1136.3963              1158.5833
 Red. masses --      1.5515                 2.5543                 1.8853
 Frc consts  --      1.1424                 1.9435                 1.4910
 IR Inten    --      3.9087                30.6202                10.9787

                     28                     29                     30
                      A                      A                      A
 Frequencies --   1200.0444              1221.9648              1244.7354
 Red. masses --      1.8166                 1.6881                 1.6240
 Frc consts  --      1.5413                 1.4851                 1.4825
 IR Inten    --      4.2180                 4.5981                17.7564

                     31                     32                     33
                      A                      A                      A
 Frequencies --   1257.0697              1262.5534              1271.2194
 Red. masses --      1.8224                 1.4682                 1.4393
 Frc consts  --      1.6967                 1.3789                 1.3704
 IR Inten    --     13.6319                50.9027                 3.1842

                     34                     35                     36
                      A                      A                      A
 Frequencies --   1353.6138              1413.1667              1422.3601
 Red. masses --      2.0281                 1.2887                 1.3855
 Frc consts  --      2.1895                 1.5163                 1.6515
 IR Inten    --     17.7694                 1.6551                 5.9749

                     37                     38                     39
                      A                      A                      A
 Frequencies --   1437.0886              1483.0765              1490.6611
 Red. masses --      1.1172                 1.1092                 1.0499
 Frc consts  --      1.3594                 1.4374                 1.3745
 IR Inten    --     10.0285                 4.6310                 3.5876

                     40                     41                     42
                      A                      A                      A
 Frequencies --   1495.0762              1884.0538              2987.4521
 Red. masses --      1.0504                12.4818                 1.0849
 Frc consts  --      1.3833                26.1044                 5.7047
 IR Inten    --      4.5803               311.9000                48.5057

                     43                     44                     45
                      A                      A                      A
 Frequencies --   3017.8575              3058.2552              3073.9356
 Red. masses --      1.0367                 1.0585                 1.0594
 Frc consts  --      5.5628                 5.8332                 5.8978
 IR Inten    --     32.8196                 9.2905                20.3958

                     46                     47                     48
                      A                      A                      A
 Frequencies --   3079.5282              3092.1018              3111.5616
 Red. masses --      1.0991                 1.1012                 1.0932
 Frc consts  --      6.1415                 6.2032                 6.2359
 IR Inten    --     20.7600                23.3808                12.7387

                     49                     50                     51
                      A                      A                      A
 Frequencies --   3114.1200              3131.7433              3814.7047
 Red. masses --      1.1029                 1.1062                 1.0661
 Frc consts  --      6.3016                 6.3922                 9.1406
 IR Inten    --      3.8428                18.8404                24.0096

 - Thermochemistry -
 -------------------
 Temperature   298.150 Kelvin.  Pressure   1.00000 Atm.
 Atom     1 has atomic number  6 and mass  12.00000

 Molecular mass:   126.06808 amu.
 Principal axes and moments of inertia in atomic units:
                           1         2         3
     Eigenvalues --   746.393891257.591711478.65359
           X            0.99984   0.01697   0.00516
           Y           -0.01681   0.99944  -0.02881
           Z           -0.00564   0.02872   0.99957
 This molecule is an asymmetric top.
 Rotational symmetry number  1.
 Warning -- assumption of classical behavior for rotation
           may cause significant error
 Rotational temperatures (Kelvin)      0.11604     0.06887     0.05858
 Rotational constants (GHZ):           2.41795     1.43508     1.22053
 Zero-point vibrational energy     414096.8 (Joules/Mol)
                                   98.97150 (Kcal/Mol)
 Warning -- explicit consideration of  12 degrees of freedom as
           vibrations may cause significant error
 Vibrational temperatures:     90.04   207.52   304.21   345.69   385.58
          (Kelvin)            433.67   452.35   581.41   610.37   735.69
                              760.35   841.41   908.34  1070.33  1097.20
                             1206.40  1259.18  1318.80  1357.93  1396.29
                             1445.15  1480.77  1550.15  1600.00  1608.39
                             1635.02  1666.94  1726.59  1758.13  1790.89
                             1808.64  1816.53  1829.00  1947.55  2033.23
                             2046.46  2067.65  2133.81  2144.73  2151.08
                             2710.73  4298.27  4342.02  4400.14  4422.70
                             4430.75  4448.84  4476.84  4480.52  4505.87
                             5488.50

 Zero-point correction=                           0.157721 (Hartree/Particle)
 Thermal correction to Energy=                    0.166432
 Thermal correction to Enthalpy=                  0.167376
 Thermal correction to Gibbs Free Energy=         0.124459
 Sum of electronic and zero-point Energies=           -423.022437
 Sum of electronic and thermal Energies=              -423.013726
 Sum of electronic and thermal Enthalpies=            -423.012782
 Sum of electronic and thermal Free Energies=         -423.055699

                     E (Thermal)             CV                S
                      KCal/Mol        Cal/Mol-Kelvin    Cal/Mol-Kelvin
 Total                  104.438             33.513             90.326
 Electronic               0.000              0.000              0.000
 Translational            0.889              2.981             40.409
 Rotational               0.889              2.981             28.719
 Vibrational            102.660             27.551             21.198
 Vibration     1          0.597              1.972              4.374
 Vibration     2          0.616              1.909              2.747
 Vibration     3          0.643              1.823              2.031
 Vibration     4          0.657              1.779              1.801
 Vibration     5          0.673              1.732              1.609
 Vibration     6          0.693              1.671              1.409
 Vibration     7          0.702              1.646              1.339
 Vibration     8          0.769              1.461              0.948
 Vibration     9          0.786              1.418              0.878
 Vibration    10          0.866              1.225              0.630
 Vibration    11          0.883              1.187              0.591
 Vibration    12          0.942              1.064              0.477

 Normal termination of Gaussian 09 at Tue Jan 28 03:33:23 2020.
