 Gaussian 09, Revision D.01,
 Gaussian 09:  ES64L-G09RevD.01 24-Apr-2013

 -----------------------------
 # b3lyp 6-31G(2df,p) opt Freq
 -----------------------------

 -----
 titel
 -----
 Symbolic Z-matrix:
 Charge =  0 Multiplicity = 1

 SCF Done:  E(RB3LYP) =  -423.029792153     A.U. after   13 cycles
 Optimization completed.
    -- Stationary point found.
 Normal termination of Gaussian 09 at Tue Jan 28 02:54:53 2020.

 ----------------------------------------------------------------------
 #N Geom=AllCheck Guess=TCheck SCRF=Check GenChk RB3LYP/6-31G(2df,p) Fr
 eq
 ----------------------------------------------------------------------

 Structure from the checkpoint file:  "/scratch/puck/g09_b8683208-d853-4f5e-afc0-4f84408710d8/Gau-67036.chk"
 -----
 titel
 -----
 Charge =  0 Multiplicity = 1

                         Standard orientation:
 ---------------------------------------------------------------------
 Center     Atomic      Atomic             Coordinates (Angstroms)
 Number     Number       Type             X           Y           Z
 ---------------------------------------------------------------------
      1          6           0        0.469299    1.859498    0.185884
      2          6           0        0.033394    0.507050   -0.349140
      3          6           0        1.199603   -0.568340   -0.362993
      4          8           0        2.477114    0.007463   -0.381737
      5          6           0        0.634797   -1.092604    1.062593
      6          6           0       -0.671939   -0.492252    0.544962
      7          6           0       -1.430484   -1.122370   -0.667265
      8          6           0       -1.481564    0.393523   -0.767828
      9          8           0       -1.842628    0.420270    0.724796
     10          1           0        1.239203    1.775498    0.957269
     11          1           0        0.899264    2.459581   -0.623262
     12          1           0       -0.388341    2.389261    0.603802
     13          1           0        1.108664   -1.346888   -1.126166
     14          1           0        3.129614   -0.700105   -0.375454
     15          1           0        0.671042   -2.161327    1.290844
     16          1           0        1.103195   -0.512779    1.860719
     17          1           0       -0.874065   -1.681476   -1.421269
     18          1           0       -2.375771   -1.595717   -0.403433
     19          1           0       -2.107321    1.045055   -1.384794
 ---------------------------------------------------------------------

 SCF Done:  E(RB3LYP) =  -423.029792153     A.U. after    1 cycles

 The electronic state is 1-A.
 Alpha  occ. eigenvalues --  -19.15066 -19.13085 -10.25538 -10.25341 -10.24426
 Alpha  occ. eigenvalues --  -10.20061 -10.18894 -10.18806 -10.16355  -1.04334
 Alpha  occ. eigenvalues --   -1.03262  -0.84671  -0.74481  -0.72543  -0.63959
 Alpha  occ. eigenvalues --   -0.62211  -0.60619  -0.52901  -0.50560  -0.47925
 Alpha  occ. eigenvalues --   -0.45434  -0.44137  -0.43287  -0.41301  -0.39205
 Alpha  occ. eigenvalues --   -0.37893  -0.36482  -0.35597  -0.33388  -0.32507
 Alpha  occ. eigenvalues --   -0.30786  -0.27370  -0.24680  -0.22521
 Alpha virt. eigenvalues --    0.04979   0.07896   0.09082   0.09985   0.11087
 Alpha virt. eigenvalues --    0.11775   0.13505   0.14050   0.14634   0.16274
 Alpha virt. eigenvalues --    0.17521   0.17959   0.20196   0.20865   0.21396

 Mulliken charges:
               1
     1  C   -0.454336
     2  C    0.267972
     3  C    0.037371
     4  O   -0.425840
     5  C   -0.387560
     6  C    0.368148
     7  C   -0.260982
     8  C   -0.033192
     9  O   -0.384990
    10  H    0.122038
    11  H    0.117939
    12  H    0.131497
    13  H    0.086662
    14  H    0.288410
    15  H    0.103677
    16  H    0.131762
    17  H    0.096372
    18  H    0.107883
    19  H    0.087169
 Sum of Mulliken charges =   0.00000

 Dipole moment (field-independent basis, Debye):
    X=              1.7712    Y=             -2.1649    Z=             -1.0696  Tot=              2.9946
 Quadrupole moment (field-independent basis, Debye-Ang):
   XX=            -53.3722   YY=            -51.1751   ZZ=            -53.5187
   XY=             -3.5414   XZ=              3.7071   YZ=             -0.3363

  Exact polarizability:  86.025  -1.506  78.093   4.782  -0.788  64.990
 Approx polarizability: 126.459  -5.834 114.293   2.035  -1.482 105.481

                      1                      2                      3
                      A                      A                      A
 Frequencies --    157.7495               181.1374               224.9237
 Red. masses --      1.1071                 2.7943                 1.1449
 Frc consts  --      0.0162                 0.0540                 0.0341
 IR Inten    --      0.1339                 0.5914               101.3908

                      4                      5                      6
                      A                      A                      A
 Frequencies --    266.6216               294.4567               313.6917
 Red. masses --      3.2200                 2.9761                 3.4937
 Frc consts  --      0.1349                 0.1520                 0.2026
 IR Inten    --      3.6221                 4.6221                 4.5922

                      7                      8                      9
                      A                      A                      A
 Frequencies --    359.8288               430.4292               478.1890
 Red. masses --      3.1277                 5.5238                 2.4286
 Frc consts  --      0.2386                 0.6030                 0.3272
 IR Inten    --      0.2004                 6.2562                 4.6921

                     10                     11                     12
                      A                      A                      A
 Frequencies --    506.4516               600.1581               626.6396
 Red. masses --      2.9375                 4.1620                 3.8269
 Frc consts  --      0.4439                 0.8833                 0.8854
 IR Inten    --      5.9456                 7.0273                13.1217

                     13                     14                     15
                      A                      A                      A
 Frequencies --    671.4544               722.6428               782.5371
 Red. masses --      2.5120                 3.7188                 3.0104
 Frc consts  --      0.6673                 1.1442                 1.0861
 IR Inten    --      1.5066                 2.1721                 8.9976

                     16                     17                     18
                      A                      A                      A
 Frequencies --    813.8607               843.2146               892.5134
 Red. masses --      3.1795                 3.2112                 2.2242
 Frc consts  --      1.2408                 1.3452                 1.0439
 IR Inten    --      9.2616                15.3629                 8.6116

                     19                     20                     21
                      A                      A                      A
 Frequencies --    956.8579               963.2004               983.9840
 Red. masses --      2.3340                 2.2236                 1.9997
 Frc consts  --      1.2591                 1.2155                 1.1407
 IR Inten    --     16.3967                 7.2915                26.0617

                     22                     23                     24
                      A                      A                      A
 Frequencies --   1022.4404              1063.7619              1085.8100
 Red. masses --      1.4038                 1.5708                 1.8317
 Frc consts  --      0.8646                 1.0472                 1.2723
 IR Inten    --      3.9360                25.3028                52.1596

                     25                     26                     27
                      A                      A                      A
 Frequencies --   1121.3458              1130.5487              1166.2278
 Red. masses --      1.5443                 1.6130                 2.0651
 Frc consts  --      1.1441                 1.2147                 1.6548
 IR Inten    --      2.5442                18.5171                14.1111

                     28                     29                     30
                      A                      A                      A
 Frequencies --   1177.3788              1193.2341              1197.1411
 Red. masses --      1.6001                 1.6284                 1.5107
 Frc consts  --      1.3069                 1.3660                 1.2756
 IR Inten    --      3.4873                 8.3850                35.7581

                     31                     32                     33
                      A                      A                      A
 Frequencies --   1205.6768              1218.1662              1264.2563
 Red. masses --      2.0352                 1.7179                 1.5004
 Frc consts  --      1.7430                 1.5019                 1.4130
 IR Inten    --     17.6692                22.0317                20.1039

                     34                     35                     36
                      A                      A                      A
 Frequencies --   1277.1901              1325.6104              1399.9027
 Red. masses --      2.8266                 2.7351                 1.2337
 Frc consts  --      2.7166                 2.8317                 1.4245
 IR Inten    --     10.0236                18.4259                 2.1056

                     37                     38                     39
                      A                      A                      A
 Frequencies --   1429.3087              1472.0924              1491.3566
 Red. masses --      1.2981                 1.1341                 1.0595
 Frc consts  --      1.5624                 1.4480                 1.3884
 IR Inten    --      6.0451                 2.8464                 5.5245

                     40                     41                     42
                      A                      A                      A
 Frequencies --   1493.3076              1498.7494              3043.6716
 Red. masses --      1.0676                 1.1553                 1.0383
 Frc consts  --      1.4027                 1.5289                 5.6669
 IR Inten    --      4.5665                 1.9311                28.4335

                     43                     44                     45
                      A                      A                      A
 Frequencies --   3047.7504              3060.1541              3067.7221
 Red. masses --      1.0840                 1.0587                 1.0800
 Frc consts  --      5.9324                 5.8412                 5.9885
 IR Inten    --     18.3443                41.1045                68.4161

                     46                     47                     48
                      A                      A                      A
 Frequencies --   3082.6618              3102.4721              3132.8325
 Red. masses --      1.0683                 1.0978                 1.1071
 Frc consts  --      5.9811                 6.2256                 6.4022
 IR Inten    --     51.1546                16.9645                20.5397

                     49                     50                     51
                      A                      A                      A
 Frequencies --   3139.2057              3154.4235              3817.6015
 Red. masses --      1.1014                 1.1095                 1.0663
 Frc consts  --      6.3949                 6.5047                 9.1558
 IR Inten    --      8.8282                22.8659                31.6153

 - Thermochemistry -
 -------------------
 Temperature   298.150 Kelvin.  Pressure   1.00000 Atm.
 Atom     1 has atomic number  6 and mass  12.00000

 Molecular mass:   126.06808 amu.
 Principal axes and moments of inertia in atomic units:
                           1         2         3
     Eigenvalues --   608.054111127.822591336.46013
           X            0.99956   0.00480   0.02919
           Y           -0.00543   0.99976   0.02137
           Z           -0.02908  -0.02152   0.99935
 This molecule is an asymmetric top.
 Rotational symmetry number  1.
 Warning -- assumption of classical behavior for rotation
           may cause significant error
 Rotational temperatures (Kelvin)      0.14244     0.07680     0.06481
 Rotational constants (GHZ):           2.96806     1.60020     1.35039
 Zero-point vibrational energy     412427.8 (Joules/Mol)
                                   98.57261 (Kcal/Mol)
 Warning -- explicit consideration of  11 degrees of freedom as
           vibrations may cause significant error
 Vibrational temperatures:    226.97   260.62   323.61   383.61   423.66
          (Kelvin)            451.33   517.71   619.29   688.01   728.67
                              863.49   901.59   966.07  1039.72  1125.90
                             1170.96  1213.20  1284.13  1376.70  1385.83
                             1415.73  1471.06  1530.51  1562.24  1613.36
                             1626.61  1677.94  1693.98  1716.80  1722.42
                             1734.70  1752.67  1818.98  1837.59  1907.26
                             2014.15  2056.45  2118.01  2145.73  2148.53
                             2156.36  4379.16  4385.03  4402.87  4413.76
                             4435.26  4463.76  4507.44  4516.61  4538.51
                             5492.67

 Zero-point correction=                           0.157085 (Hartree/Particle)
 Thermal correction to Energy=                    0.165295
 Thermal correction to Enthalpy=                  0.166239
 Thermal correction to Gibbs Free Energy=         0.125107
 Sum of electronic and zero-point Energies=           -422.872707
 Sum of electronic and thermal Energies=              -422.864498
 Sum of electronic and thermal Enthalpies=            -422.863553
 Sum of electronic and thermal Free Energies=         -422.904686

                     E (Thermal)             CV                S
                      KCal/Mol        Cal/Mol-Kelvin    Cal/Mol-Kelvin
 Total                  103.724             33.114             86.570
 Electronic               0.000              0.000              0.000
 Translational            0.889              2.981             40.409
 Rotational               0.889              2.981             28.307
 Vibrational            101.946             27.153             17.854
 Vibration     1          0.621              1.894              2.577
 Vibration     2          0.630              1.865              2.317
 Vibration     3          0.650              1.803              1.919
 Vibration     4          0.672              1.734              1.618
 Vibration     5          0.689              1.684              1.448
 Vibration     6          0.702              1.648              1.343
 Vibration     7          0.734              1.555              1.123
 Vibration     8          0.792              1.404              0.857
 Vibration     9          0.835              1.298              0.715
 Vibration    10          0.862              1.236              0.642
 Vibration    11          0.958              1.031              0.449

 Normal termination of Gaussian 09 at Tue Jan 28 03:44:47 2020.
