 Gaussian 09, Revision D.01,
 Gaussian 09:  ES64L-G09RevD.01 24-Apr-2013

 -----------------------------
 # b3lyp 6-31G(2df,p) opt Freq
 -----------------------------

 -----
 titel
 -----
 Symbolic Z-matrix:
 Charge =  0 Multiplicity = 1

 SCF Done:  E(RB3LYP) =  -423.123502423     A.U. after   13 cycles
 Optimization completed.
    -- Stationary point found.
 Normal termination of Gaussian 09 at Tue Jan 28 02:24:01 2020.

 ----------------------------------------------------------------------
 #N Geom=AllCheck Guess=TCheck SCRF=Check GenChk RB3LYP/6-31G(2df,p) Fr
 eq
 ----------------------------------------------------------------------

 Structure from the checkpoint file:  "/scratch/puck/g09_ec0ea033-7277-4677-81cf-54d057779f10/Gau-194500.chk"
 -----
 titel
 -----
 Charge =  0 Multiplicity = 1

                         Standard orientation:
 ---------------------------------------------------------------------
 Center     Atomic      Atomic             Coordinates (Angstroms)
 Number     Number       Type             X           Y           Z
 ---------------------------------------------------------------------
      1          6           0       -2.642471   -0.384456    0.163041
      2          6           0       -1.191743   -0.641329   -0.193913
      3          8           0       -0.651413    0.416889   -1.044060
      4          6           0        0.347771    0.764093   -0.070901
      5          6           0        0.445703    2.235452    0.230132
      6          6           0        1.703997   -0.011264   -0.206131
      7          8           0        1.420861   -1.342959   -0.631099
      8          6           0        1.234572   -1.033700    0.750906
      9          6           0       -0.141421   -0.340428    0.903794
     10          1           0       -3.254899   -0.353642   -0.743421
     11          1           0       -3.023024   -1.185053    0.807386
     12          1           0       -2.760311    0.569512    0.686785
     13          1           0       -1.067649   -1.614527   -0.678400
     14          1           0        0.761553    2.781032   -0.666495
     15          1           0       -0.521104    2.634089    0.549081
     16          1           0        1.181760    2.424076    1.019111
     17          1           0        2.694232    0.377689   -0.421980
     18          1           0        1.775999   -1.634628    1.472347
     19          1           0       -0.480573   -0.120189    1.915293
 ---------------------------------------------------------------------

 SCF Done:  E(RB3LYP) =  -423.123502423     A.U. after    1 cycles

 The electronic state is 1-A.
 Alpha  occ. eigenvalues --  -19.15650 -19.12651 -10.24246 -10.24101 -10.23551
 Alpha  occ. eigenvalues --  -10.23039 -10.19151 -10.18359 -10.17554  -1.08802
 Alpha  occ. eigenvalues --   -1.02643  -0.79283  -0.76247  -0.71811  -0.65403
 Alpha  occ. eigenvalues --   -0.61814  -0.58795  -0.53837  -0.50347  -0.48793
 Alpha  occ. eigenvalues --   -0.46526  -0.45037  -0.42223  -0.41054  -0.39900
 Alpha  occ. eigenvalues --   -0.39268  -0.37582  -0.37109  -0.35023  -0.33893
 Alpha  occ. eigenvalues --   -0.30282  -0.26836  -0.26265  -0.23941
 Alpha virt. eigenvalues --    0.06274   0.08927   0.09515   0.10574   0.12338
 Alpha virt. eigenvalues --    0.13853   0.14638   0.14966   0.15564   0.16080
 Alpha virt. eigenvalues --    0.16594   0.18147   0.18649   0.20067   0.21876

 Mulliken charges:
               1
     1  C   -0.413886
     2  C    0.152451
     3  O   -0.341634
     4  C    0.444385
     5  C   -0.484711
     6  C   -0.050644
     7  O   -0.223684
     8  C    0.008864
     9  C   -0.210611
    10  H    0.128977
    11  H    0.114050
    12  H    0.114731
    13  H    0.093566
    14  H    0.133262
    15  H    0.127215
    16  H    0.120275
    17  H    0.100163
    18  H    0.106819
    19  H    0.080413
 Sum of Mulliken charges =   0.00000

 Dipole moment (field-independent basis, Debye):
    X=              0.2425    Y=              0.7639    Z=              2.6039  Tot=              2.7245
 Quadrupole moment (field-independent basis, Debye-Ang):
   XX=            -50.3547   YY=            -52.7828   ZZ=            -54.5495
   XY=              3.2232   XZ=              0.5494   YZ=             -1.5391

  Exact polarizability:  83.790   2.738  75.919  -0.834  -2.701  63.966
 Approx polarizability: 109.693   3.589 110.969  -2.418  -4.349 105.629

                      1                      2                      3
                      A                      A                      A
 Frequencies --    131.5119               204.4045               226.8949
 Red. masses --      3.1873                 1.1108                 1.0930
 Frc consts  --      0.0325                 0.0273                 0.0332
 IR Inten    --      1.4810                 0.2305                 0.1785

                      4                      5                      6
                      A                      A                      A
 Frequencies --    233.3179               259.6156               288.2819
 Red. masses --      2.4771                 2.8067                 2.8805
 Frc consts  --      0.0794                 0.1115                 0.1410
 IR Inten    --      0.4647                 2.2908                 0.6601

                      7                      8                      9
                      A                      A                      A
 Frequencies --    346.2543               371.9563               530.5949
 Red. masses --      4.1309                 2.9291                 3.2761
 Frc consts  --      0.2918                 0.2388                 0.5434
 IR Inten    --      0.8663                 2.8660                 1.5123

                     10                     11                     12
                      A                      A                      A
 Frequencies --    565.0745               649.4133               724.5392
 Red. masses --      4.7869                 4.4574                 4.5404
 Frc consts  --      0.9006                 1.1076                 1.4043
 IR Inten    --     12.8568                 9.7510                 4.3567

                     13                     14                     15
                      A                      A                      A
 Frequencies --    811.4638               829.3137               846.1422
 Red. masses --      3.6633                 2.0140                 2.2783
 Frc consts  --      1.4212                 0.8161                 0.9611
 IR Inten    --      1.5622                 3.8772                10.3640

                     16                     17                     18
                      A                      A                      A
 Frequencies --    861.7367               876.2215               901.4929
 Red. masses --      1.8727                 2.5125                 2.2794
 Frc consts  --      0.8193                 1.1365                 1.0914
 IR Inten    --      2.1533                14.0777                50.0623

                     19                     20                     21
                      A                      A                      A
 Frequencies --    939.4507               963.1824              1003.4311
 Red. masses --      2.8393                 2.0211                 2.4609
 Frc consts  --      1.4764                 1.1047                 1.4599
 IR Inten    --      2.8654                10.1773                16.7839

                     22                     23                     24
                      A                      A                      A
 Frequencies --   1032.0661              1047.7945              1081.5466
 Red. masses --      1.6679                 1.7408                 1.6524
 Frc consts  --      1.0467                 1.1260                 1.1388
 IR Inten    --     28.3428                23.9586                11.5263

                     25                     26                     27
                      A                      A                      A
 Frequencies --   1099.7813              1127.5313              1164.4320
 Red. masses --      2.0188                 2.4515                 2.1161
 Frc consts  --      1.4386                 1.8363                 1.6905
 IR Inten    --     12.6753                 4.2833                35.5202

                     28                     29                     30
                      A                      A                      A
 Frequencies --   1170.3785              1211.5734              1237.7189
 Red. masses --      1.6501                 1.6665                 1.6543
 Frc consts  --      1.3317                 1.4413                 1.4931
 IR Inten    --      3.3425                 2.5798                10.2071

                     31                     32                     33
                      A                      A                      A
 Frequencies --   1264.9677              1304.6134              1312.7666
 Red. masses --      1.6696                 1.5469                 2.4964
 Frc consts  --      1.5740                 1.5512                 2.5347
 IR Inten    --      5.2855                 7.1386                20.6732

                     34                     35                     36
                      A                      A                      A
 Frequencies --   1355.2254              1395.0657              1403.2410
 Red. masses --      2.0340                 1.8798                 1.3368
 Frc consts  --      2.2010                 2.1555                 1.5509
 IR Inten    --     17.7473                 6.9514                 8.4899

                     37                     38                     39
                      A                      A                      A
 Frequencies --   1408.6740              1477.2547              1484.0436
 Red. masses --      1.4871                 1.0494                 1.0621
 Frc consts  --      1.7387                 1.3493                 1.3782
 IR Inten    --      6.9789                 1.6070                 4.5841

                     40                     41                     42
                      A                      A                      A
 Frequencies --   1488.4091              1494.4495              3030.7793
 Red. masses --      1.0509                 1.0497                 1.0351
 Frc consts  --      1.3716                 1.3813                 5.6018
 IR Inten    --      2.0267                 2.8603                19.7850

                     43                     44                     45
                      A                      A                      A
 Frequencies --   3031.3195              3062.3889              3098.0817
 Red. masses --      1.0355                 1.0857                 1.1002
 Frc consts  --      5.6060                 5.9992                 6.2219
 IR Inten    --     14.3526                17.7714                14.1754

                     46                     47                     48
                      A                      A                      A
 Frequencies --   3103.5817              3111.2060              3116.2563
 Red. masses --      1.1005                 1.1018                 1.1013
 Frc consts  --      6.2455                 6.2835                 6.3014
 IR Inten    --     25.6150                26.5724                16.2370

                     49                     50                     51
                      A                      A                      A
 Frequencies --   3124.1108              3162.8713              3187.5664
 Red. masses --      1.0892                 1.0897                 1.0987
 Frc consts  --      6.2635                 6.4230                 6.5774
 IR Inten    --     18.6335                20.4053                24.7873

 - Thermochemistry -
 -------------------
 Temperature   298.150 Kelvin.  Pressure   1.00000 Atm.
 Atom     1 has atomic number  6 and mass  12.00000

 Molecular mass:   126.06808 amu.
 Principal axes and moments of inertia in atomic units:
                           1         2         3
     Eigenvalues --   711.531831040.451191378.86820
           X            0.99752   0.07034  -0.00191
           Y           -0.07034   0.99752   0.00176
           Z            0.00203  -0.00162   1.00000
 This molecule is an asymmetric top.
 Rotational symmetry number  1.
 Warning -- assumption of classical behavior for rotation
           may cause significant error
 Rotational temperatures (Kelvin)      0.12173     0.08325     0.06282
 Rotational constants (GHZ):           2.53642     1.73458     1.30886
 Zero-point vibrational energy     413632.7 (Joules/Mol)
                                   98.86059 (Kcal/Mol)
 Warning -- explicit consideration of  10 degrees of freedom as
           vibrations may cause significant error
 Vibrational temperatures:    189.22   294.09   326.45   335.69   373.53
          (Kelvin)            414.77   498.18   535.16   763.41   813.02
                              934.36  1042.45  1167.51  1193.20  1217.41
                             1239.85  1260.69  1297.05  1351.66  1385.80
                             1443.71  1484.91  1507.54  1556.10  1582.34
                             1622.26  1675.36  1683.91  1743.18  1780.80
                             1820.00  1877.05  1888.78  1949.86  2007.19
                             2018.95  2026.77  2125.44  2135.21  2141.49
                             2150.18  4360.61  4361.39  4406.09  4457.44
                             4465.36  4476.33  4483.59  4494.89  4550.66
                             4586.19

 Zero-point correction=                           0.157544 (Hartree/Particle)
 Thermal correction to Energy=                    0.165673
 Thermal correction to Enthalpy=                  0.166617
 Thermal correction to Gibbs Free Energy=         0.125374
 Sum of electronic and zero-point Energies=           -422.965958
 Sum of electronic and thermal Energies=              -422.957829
 Sum of electronic and thermal Enthalpies=            -422.956885
 Sum of electronic and thermal Free Energies=         -422.998128

                     E (Thermal)             CV                S
                      KCal/Mol        Cal/Mol-Kelvin    Cal/Mol-Kelvin
 Total                  103.961             32.049             86.804
 Electronic               0.000              0.000              0.000
 Translational            0.889              2.981             40.409
 Rotational               0.889              2.981             28.414
 Vibrational            102.184             26.087             17.981
 Vibration     1          0.612              1.922              2.924
 Vibration     2          0.640              1.834              2.093
 Vibration     3          0.651              1.800              1.903
 Vibration     4          0.654              1.790              1.853
 Vibration     5          0.668              1.746              1.664
 Vibration     6          0.685              1.696              1.484
 Vibration     7          0.724              1.583              1.183
 Vibration     8          0.744              1.530              1.072
 Vibration     9          0.886              1.182              0.586
 Vibration    10          0.921              1.107              0.514

 Normal termination of Gaussian 09 at Tue Jan 28 03:08:30 2020.
