 Gaussian 09, Revision D.01,
 Gaussian 09:  ES64L-G09RevD.01 24-Apr-2013

 -----------------------------
 # b3lyp 6-31G(2df,p) opt Freq
 -----------------------------

 -----
 titel
 -----
 Symbolic Z-matrix:
 Charge =  0 Multiplicity = 1

 SCF Done:  E(RB3LYP) =  -423.158328643     A.U. after   13 cycles
 Optimization completed.
    -- Stationary point found.
 Normal termination of Gaussian 09 at Mon Jan 27 11:18:11 2020.

 ----------------------------------------------------------------------
 #N Geom=AllCheck Guess=TCheck SCRF=Check GenChk RB3LYP/6-31G(2df,p) Fr
 eq
 ----------------------------------------------------------------------

 Structure from the checkpoint file:  "/scratch/puck/g09_90f01740-fcc8-4e8c-a1ba-7ec901dd64d0/Gau-46443.chk"
 -----
 titel
 -----
 Charge =  0 Multiplicity = 1

                         Standard orientation:
 ---------------------------------------------------------------------
 Center     Atomic      Atomic             Coordinates (Angstroms)
 Number     Number       Type             X           Y           Z
 ---------------------------------------------------------------------
      1          6           0       -0.876959   -0.449465    1.233932
      2          6           0       -1.831011    0.201428    0.216667
      3          6           0       -1.405044   -0.926387   -0.791307
      4          6           0       -0.054367   -0.640008   -0.088707
      5          8           0        1.172953   -1.280140   -0.160579
      6          6           0        2.189695   -0.261680    0.047452
      7          6           0        1.480069    1.122467    0.180496
      8          6           0        0.163823    0.805423   -0.528133
      9          8           0       -1.096099    1.389692   -0.184275
     10          1           0       -0.486511    0.190952    2.026621
     11          1           0       -1.233565   -1.401247    1.631267
     12          1           0       -2.868589    0.453228    0.420544
     13          1           0       -1.860080   -1.885263   -0.538956
     14          1           0       -1.482047   -0.718738   -1.860901
     15          1           0        2.767306   -0.514114    0.942314
     16          1           0        2.866089   -0.288680   -0.813886
     17          1           0        1.312355    1.384203    1.227770
     18          1           0        2.063317    1.920228   -0.283641
     19          1           0        0.309659    0.872344   -1.614698
 ---------------------------------------------------------------------

 SCF Done:  E(RB3LYP) =  -423.158328643     A.U. after    1 cycles

 The electronic state is 1-A.
 Alpha  occ. eigenvalues --  -19.14476 -19.13770 -10.24105 -10.23841 -10.23569
 Alpha  occ. eigenvalues --  -10.22597 -10.19028 -10.18938 -10.18010  -1.05459
 Alpha  occ. eigenvalues --   -1.02787  -0.83378  -0.77859  -0.71016  -0.67069
 Alpha  occ. eigenvalues --   -0.60933  -0.57625  -0.55520  -0.50797  -0.49794
 Alpha  occ. eigenvalues --   -0.46939  -0.45740  -0.43115  -0.40655  -0.39288
 Alpha  occ. eigenvalues --   -0.37998  -0.36704  -0.36363  -0.35580  -0.33170
 Alpha  occ. eigenvalues --   -0.32432  -0.28846  -0.25136  -0.24139
 Alpha virt. eigenvalues --    0.07180   0.09338   0.10777   0.11251   0.13154
 Alpha virt. eigenvalues --    0.13937   0.14488   0.16335   0.16626   0.17500
 Alpha virt. eigenvalues --    0.17712   0.19644   0.20814   0.21468   0.21912

 Mulliken charges:
               1
     1  C   -0.303857
     2  C    0.096200
     3  C   -0.318472
     4  C    0.406503
     5  O   -0.330534
     6  C   -0.090145
     7  C   -0.316558
     8  C    0.122806
     9  O   -0.301239
    10  H    0.099180
    11  H    0.104145
    12  H    0.088574
    13  H    0.108773
    14  H    0.104304
    15  H    0.113166
    16  H    0.112559
    17  H    0.118369
    18  H    0.108847
    19  H    0.077377
 Sum of Mulliken charges =   0.00000

 Dipole moment (field-independent basis, Debye):
    X=              0.4148    Y=             -0.0691    Z=              0.3405  Tot=              0.5411
 Quadrupole moment (field-independent basis, Debye-Ang):
   XX=            -49.1012   YY=            -58.2034   ZZ=            -51.6731
   XY=              5.2872   XZ=             -0.3530   YZ=             -0.3591

  Exact polarizability:  85.968   5.510  66.794  -0.382  -0.372  68.898
 Approx polarizability: 115.369   3.503 103.990  -1.155  -0.480 104.668

                      1                      2                      3
                      A                      A                      A
 Frequencies --    100.8650               237.8045               347.5798
 Red. masses --      2.2112                 2.8799                 3.3434
 Frc consts  --      0.0133                 0.0960                 0.2380
 IR Inten    --      2.0675                 3.1873                 2.7450

                      4                      5                      6
                      A                      A                      A
 Frequencies --    405.8864               468.4525               515.1594
 Red. masses --      3.6280                 3.3219                 2.3842
 Frc consts  --      0.3522                 0.4295                 0.3728
 IR Inten    --      5.0312                 5.3739                 0.2819

                      7                      8                      9
                      A                      A                      A
 Frequencies --    547.5766               602.0249               633.5727
 Red. masses --      2.5180                 2.4225                 5.1716
 Frc consts  --      0.4448                 0.5173                 1.2231
 IR Inten    --      2.1091                 1.7532                 0.9291

                     10                     11                     12
                      A                      A                      A
 Frequencies --    730.3233               804.6492               835.1072
 Red. masses --      4.8905                 2.5334                 1.6943
 Frc consts  --      1.5369                 0.9664                 0.6962
 IR Inten    --      5.0870                 0.8388                 2.6658

                     13                     14                     15
                      A                      A                      A
 Frequencies --    854.3287               885.3084               904.3025
 Red. masses --      2.1441                 3.4038                 3.1057
 Frc consts  --      0.9220                 1.5718                 1.4964
 IR Inten    --      4.9261                12.1633                30.6659

                     16                     17                     18
                      A                      A                      A
 Frequencies --    935.7601               942.3900               961.0623
 Red. masses --      2.3376                 2.6571                 1.6051
 Frc consts  --      1.2060                 1.3904                 0.8735
 IR Inten    --     13.7428                 3.9073                10.6439

                     19                     20                     21
                      A                      A                      A
 Frequencies --    975.8334              1004.9780              1029.5651
 Red. masses --      3.3070                 1.5058                 1.6250
 Frc consts  --      1.8554                 0.8961                 1.0149
 IR Inten    --     51.0666                14.6879                 5.5767

                     22                     23                     24
                      A                      A                      A
 Frequencies --   1040.4372              1108.4983              1119.1581
 Red. masses --      2.4749                 1.9683                 2.0349
 Frc consts  --      1.5785                 1.4250                 1.5017
 IR Inten    --     10.2511                45.1617                13.1382

                     25                     26                     27
                      A                      A                      A
 Frequencies --   1130.7819              1153.0974              1195.4830
 Red. masses --      1.9993                 1.6834                 1.3583
 Frc consts  --      1.5062                 1.3187                 1.1437
 IR Inten    --      4.3358                 3.3357                 0.7380

                     28                     29                     30
                      A                      A                      A
 Frequencies --   1208.9916              1218.7542              1226.7609
 Red. masses --      1.2257                 2.0023                 1.5846
 Frc consts  --      1.0556                 1.7523                 1.4051
 IR Inten    --      0.6613                12.5364                34.0280

                     31                     32                     33
                      A                      A                      A
 Frequencies --   1235.1267              1272.7695              1283.1803
 Red. masses --      1.7507                 2.0574                 1.4436
 Frc consts  --      1.5736                 1.9637                 1.4005
 IR Inten    --      2.1248               124.3456                 2.1418

                     34                     35                     36
                      A                      A                      A
 Frequencies --   1297.9382              1343.2308              1390.3341
 Red. masses --      1.7546                 1.7025                 1.4099
 Frc consts  --      1.7415                 1.8098                 1.6057
 IR Inten    --      6.0746                 5.8464                29.7984

                     37                     38                     39
                      A                      A                      A
 Frequencies --   1410.1116              1474.2872              1496.8880
 Red. masses --      1.3514                 1.1086                 1.0995
 Frc consts  --      1.5833                 1.4196                 1.4515
 IR Inten    --      3.2194                 2.5573                 8.7537

                     40                     41                     42
                      A                      A                      A
 Frequencies --   1516.8672              1523.6226              3008.1198
 Red. masses --      1.1513                 1.1054                 1.0842
 Frc consts  --      1.5607                 1.5119                 5.7801
 IR Inten    --      5.9436                 1.1730                35.9685

                     43                     44                     45
                      A                      A                      A
 Frequencies --   3038.5022              3070.1155              3073.0293
 Red. masses --      1.0581                 1.0592                 1.0722
 Frc consts  --      5.7558                 5.8820                 5.9656
 IR Inten    --     64.5606                26.7652                17.1661

                     46                     47                     48
                      A                      A                      A
 Frequencies --   3077.4129              3081.0929              3125.4789
 Red. masses --      1.0735                 1.0752                 1.1071
 Frc consts  --      5.9900                 6.0136                 6.3718
 IR Inten    --      7.3125                31.9802                29.5315

                     49                     50                     51
                      A                      A                      A
 Frequencies --   3139.6054              3145.2549              3159.4125
 Red. masses --      1.1109                 1.1094                 1.0925
 Frc consts  --      6.4515                 6.4661                 6.4254
 IR Inten    --     19.2552                27.4869                37.0608

 - Thermochemistry -
 -------------------
 Temperature   298.150 Kelvin.  Pressure   1.00000 Atm.
 Atom     1 has atomic number  6 and mass  12.00000

 Molecular mass:   126.06808 amu.
 Principal axes and moments of inertia in atomic units:
                           1         2         3
     Eigenvalues --   568.414441016.845131244.40149
           X            0.99763   0.06882   0.00205
           Y           -0.06883   0.99763   0.00247
           Z           -0.00188  -0.00260   0.99999
 This molecule is an asymmetric top.
 Rotational symmetry number  1.
 Warning -- assumption of classical behavior for rotation
           may cause significant error
 Rotational temperatures (Kelvin)      0.15238     0.08518     0.06960
 Rotational constants (GHZ):           3.17504     1.77484     1.45029
 Zero-point vibrational energy     426390.2 (Joules/Mol)
                                  101.90970 (Kcal/Mol)
 Warning -- explicit consideration of   8 degrees of freedom as
           vibrations may cause significant error
 Vibrational temperatures:    145.12   342.15   500.09   583.98   674.00
          (Kelvin)            741.20   787.84   866.18   911.57  1050.77
                             1157.71  1201.53  1229.19  1273.76  1301.09
                             1346.35  1355.89  1382.75  1404.00  1445.94
                             1481.31  1496.96  1594.88  1610.22  1626.94
                             1659.05  1720.03  1739.47  1753.51  1765.03
                             1777.07  1831.23  1846.21  1867.44  1932.61
                             2000.38  2028.83  2121.17  2153.69  2182.43
                             2192.15  4328.01  4371.72  4417.21  4421.40
                             4427.71  4433.00  4496.86  4517.19  4525.31
                             4545.68

 Zero-point correction=                           0.162403 (Hartree/Particle)
 Thermal correction to Energy=                    0.169040
 Thermal correction to Enthalpy=                  0.169984
 Thermal correction to Gibbs Free Energy=         0.131486
 Sum of electronic and zero-point Energies=           -422.995925
 Sum of electronic and thermal Energies=              -422.989289
 Sum of electronic and thermal Enthalpies=            -422.988344
 Sum of electronic and thermal Free Energies=         -423.026843

                     E (Thermal)             CV                S
                      KCal/Mol        Cal/Mol-Kelvin    Cal/Mol-Kelvin
 Total                  106.074             27.873             81.027
 Electronic               0.000              0.000              0.000
 Translational            0.889              2.981             40.409
 Rotational               0.889              2.981             28.066
 Vibrational            104.297             21.912             12.553
 Vibration     1          0.604              1.948              3.438
 Vibration     2          0.656              1.783              1.819
 Vibration     3          0.725              1.580              1.177
 Vibration     4          0.771              1.457              0.941
 Vibration     5          0.826              1.320              0.742
 Vibration     6          0.870              1.216              0.621
 Vibration     7          0.903              1.145              0.549
 Vibration     8          0.960              1.028              0.446

 Optimization completed.
    -- Stationary point found.
 Normal termination of Gaussian 09 at Mon Jan 27 12:03:13 2020.
