 Gaussian 09, Revision D.01,
 Gaussian 09:  ES64L-G09RevD.01 24-Apr-2013

 -----------------------------
 # b3lyp 6-31G(2df,p) opt Freq
 -----------------------------

 -----
 titel
 -----
 Symbolic Z-matrix:
 Charge =  0 Multiplicity = 1

 SCF Done:  E(RB3LYP) =  -423.199728162     A.U. after   14 cycles
 Optimization completed.
    -- Stationary point found.
 Normal termination of Gaussian 09 at Mon Jan 27 13:08:31 2020.

 ----------------------------------------------------------------------
 #N Geom=AllCheck Guess=TCheck SCRF=Check GenChk RB3LYP/6-31G(2df,p) Fr
 eq
 ----------------------------------------------------------------------

 Structure from the checkpoint file:  "/scratch/puck/g09_b6292795-8a39-4f7d-a06a-845502b6de21/Gau-47999.chk"
 -----
 titel
 -----
 Charge =  0 Multiplicity = 1

                         Standard orientation:
 ---------------------------------------------------------------------
 Center     Atomic      Atomic             Coordinates (Angstroms)
 Number     Number       Type             X           Y           Z
 ---------------------------------------------------------------------
      1          8           0        2.256235   -1.371229    0.410282
      2          6           0        1.468335   -0.594322   -0.073639
      3          6           0        1.706416    0.907420   -0.138181
      4          6           0        0.449769    1.675351    0.310057
      5          8           0       -0.697877    1.251684   -0.410510
      6          6           0       -0.981633   -0.105382   -0.192955
      7          6           0       -1.785840   -0.455947    1.037202
      8          6           0       -2.416644   -0.483734   -0.344913
      9          6           0        0.134216   -1.024781   -0.672887
     10          1           0        2.577218    1.165347    0.469605
     11          1           0        1.919888    1.171093   -1.182463
     12          1           0        0.292070    1.535607    1.390219
     13          1           0        0.558078    2.745469    0.116054
     14          1           0       -1.592673   -1.397203    1.540142
     15          1           0       -2.069761    0.361517    1.690369
     16          1           0       -2.651714   -1.443680   -0.791534
     17          1           0       -3.103253    0.317620   -0.592294
     18          1           0       -0.055157   -2.070186   -0.420221
     19          1           0        0.210720   -0.940861   -1.766150
 ---------------------------------------------------------------------

 SCF Done:  E(RB3LYP) =  -423.199728162     A.U. after    1 cycles

 The electronic state is 1-A.
 Alpha  occ. eigenvalues --  -19.15391 -19.12928 -10.26982 -10.25005 -10.24142
 Alpha  occ. eigenvalues --  -10.19469 -10.19398 -10.19090 -10.19057  -1.05322
 Alpha  occ. eigenvalues --   -1.03849  -0.86023  -0.78717  -0.74229  -0.65324
 Alpha  occ. eigenvalues --   -0.61224  -0.57526  -0.53427  -0.50681  -0.49553
 Alpha  occ. eigenvalues --   -0.47138  -0.45396  -0.44846  -0.42372  -0.41288
 Alpha  occ. eigenvalues --   -0.40971  -0.38177  -0.37179  -0.35210  -0.34373
 Alpha  occ. eigenvalues --   -0.31721  -0.29074  -0.25936  -0.23810
 Alpha virt. eigenvalues --   -0.01571   0.08966   0.09874   0.10677   0.11693
 Alpha virt. eigenvalues --    0.13689   0.14560   0.14952   0.15177   0.16085
 Alpha virt. eigenvalues --    0.17461   0.17771   0.20548   0.20671   0.22266

 Mulliken charges:
               1
     1  O   -0.304975
     2  C    0.378211
     3  C   -0.300699
     4  C   -0.100751
     5  O   -0.284019
     6  C    0.427212
     7  C   -0.320414
     8  C   -0.332286
     9  C   -0.361485
    10  H    0.121300
    11  H    0.127116
    12  H    0.102966
    13  H    0.114928
    14  H    0.121273
    15  H    0.121671
    16  H    0.116878
    17  H    0.128585
    18  H    0.119918
    19  H    0.124570
 Sum of Mulliken charges =   0.00000

 Dipole moment (field-independent basis, Debye):
    X=             -1.2705    Y=              1.1861    Z=             -0.4012  Tot=              1.7838
 Quadrupole moment (field-independent basis, Debye-Ang):
   XX=            -57.9209   YY=            -53.7381   ZZ=            -52.1513
   XY=              7.2444   XZ=             -2.5118   YZ=              2.8533

  Exact polarizability:  84.993   2.619  76.528   2.199   0.379  65.532
 Approx polarizability: 113.694  -3.177 112.093   7.202  -4.687 103.684

                      1                      2                      3
                      A                      A                      A
 Frequencies --     82.1309               118.6586               239.2955
 Red. masses --      4.5799                 3.1479                 2.4647
 Frc consts  --      0.0182                 0.0261                 0.0832
 IR Inten    --      3.2949                 2.6193                 1.8627

                      4                      5                      6
                      A                      A                      A
 Frequencies --    272.0865               335.7405               379.6262
 Red. masses --      2.0852                 2.3279                 3.5601
 Frc consts  --      0.0910                 0.1546                 0.3023
 IR Inten    --      0.0153                 1.1270                 2.0786

                      7                      8                      9
                      A                      A                      A
 Frequencies --    418.0530               478.7198               496.2565
 Red. masses --      3.3502                 3.1930                 2.8634
 Frc consts  --      0.3450                 0.4311                 0.4155
 IR Inten    --      1.6450                 8.6375                14.5706

                     10                     11                     12
                      A                      A                      A
 Frequencies --    535.5213               628.7580               750.3778
 Red. masses --      2.8088                 3.9369                 2.1503
 Frc consts  --      0.4746                 0.9170                 0.7134
 IR Inten    --      1.8528                 2.6768                 3.2287

                     13                     14                     15
                      A                      A                      A
 Frequencies --    773.5798               778.6822               830.3713
 Red. masses --      2.1799                 1.2150                 2.2243
 Frc consts  --      0.7686                 0.4341                 0.9036
 IR Inten    --      8.4667                 0.3602                 3.5471

                     16                     17                     18
                      A                      A                      A
 Frequencies --    873.2709               922.4995               935.1692
 Red. masses --      2.1614                 1.6246                 1.8545
 Frc consts  --      0.9712                 0.8146                 0.9555
 IR Inten    --      7.8177                 1.9116                 3.5109

                     19                     20                     21
                      A                      A                      A
 Frequencies --    952.5980               972.4010              1004.4955
 Red. masses --      2.0987                 2.0553                 2.2686
 Frc consts  --      1.1221                 1.1450                 1.3487
 IR Inten    --      9.2387                 9.1814                 4.5047

                     22                     23                     24
                      A                      A                      A
 Frequencies --   1048.6877              1078.9252              1094.7190
 Red. masses --      1.4042                 1.5208                 4.4653
 Frc consts  --      0.9098                 1.0430                 3.1528
 IR Inten    --      6.1635                 3.7249                53.1476

                     25                     26                     27
                      A                      A                      A
 Frequencies --   1103.5783              1141.2393              1187.6757
 Red. masses --      2.5539                 2.0449                 1.2673
 Frc consts  --      1.8326                 1.5692                 1.0532
 IR Inten    --      9.9964                18.4891                 0.3080

                     28                     29                     30
                      A                      A                      A
 Frequencies --   1219.3033              1228.5019              1258.3906
 Red. masses --      1.5133                 1.5190                 1.4380
 Frc consts  --      1.3255                 1.3507                 1.3416
 IR Inten    --     41.2555                 2.0397                 2.4282

                     31                     32                     33
                      A                      A                      A
 Frequencies --   1285.9324              1298.6336              1335.5470
 Red. masses --      1.5934                 2.7246                 1.3158
 Frc consts  --      1.5524                 2.7072                 1.3828
 IR Inten    --      7.0873               110.6210                 6.5163

                     34                     35                     36
                      A                      A                      A
 Frequencies --   1366.0262              1408.7838              1447.3598
 Red. masses --      2.2162                 1.3323                 1.0975
 Frc consts  --      2.4365                 1.5578                 1.3546
 IR Inten    --     34.5178                13.9256                 5.8529

                     37                     38                     39
                      A                      A                      A
 Frequencies --   1451.8333              1461.2624              1491.9513
 Red. masses --      1.0957                 1.0943                 1.3562
 Frc consts  --      1.3607                 1.3767                 1.7786
 IR Inten    --      4.1043                 5.0469                11.2299

                     40                     41                     42
                      A                      A                      A
 Frequencies --   1506.7647              1824.9215              2994.6306
 Red. masses --      1.1999                11.4205                 1.0691
 Frc consts  --      1.6050                22.4090                 5.6486
 IR Inten    --      7.0097               193.0181                39.4613

                     43                     44                     45
                      A                      A                      A
 Frequencies --   3017.4442              3032.0295              3096.1878
 Red. masses --      1.0664                 1.0639                 1.0950
 Frc consts  --      5.7205                 5.7628                 6.1847
 IR Inten    --      7.6695                13.9730                32.2191

                     46                     47                     48
                      A                      A                      A
 Frequencies --   3111.5430              3114.6654              3134.6770
 Red. masses --      1.0982                 1.0953                 1.0511
 Frc consts  --      6.2642                 6.2604                 6.0850
 IR Inten    --     14.1534                 8.4432                11.0481

                     49                     50                     51
                      A                      A                      A
 Frequencies --   3138.8577              3219.7097              3233.4836
 Red. masses --      1.0578                 1.1186                 1.1159
 Frc consts  --      6.1402                 6.8319                 6.8742
 IR Inten    --      5.7216                 0.3971                 8.8472

 - Thermochemistry -
 -------------------
 Temperature   298.150 Kelvin.  Pressure   1.00000 Atm.
 Atom     1 has atomic number  8 and mass  15.99491

 Molecular mass:   126.06808 amu.
 Principal axes and moments of inertia in atomic units:
                           1         2         3
     Eigenvalues --   652.074201242.308931608.15880
           X            0.99756   0.06917  -0.00959
           Y           -0.06882   0.99708   0.03319
           Z            0.01186  -0.03245   0.99940
 This molecule is an asymmetric top.
 Rotational symmetry number  1.
 Warning -- assumption of classical behavior for rotation
           may cause significant error
 Rotational temperatures (Kelvin)      0.13283     0.06972     0.05386
 Rotational constants (GHZ):           2.76769     1.45273     1.12224
 Zero-point vibrational energy     419360.2 (Joules/Mol)
                                  100.22950 (Kcal/Mol)
 Warning -- explicit consideration of  10 degrees of freedom as
           vibrations may cause significant error
 Vibrational temperatures:    118.17   170.72   344.29   391.47   483.06
          (Kelvin)            546.20   601.48   688.77   714.00   770.49
                              904.64  1079.62  1113.01  1120.35  1194.72
                             1256.44  1327.27  1345.50  1370.57  1399.07
                             1445.24  1508.83  1552.33  1575.05  1587.80
                             1641.99  1708.80  1754.30  1767.54  1810.54
                             1850.17  1868.44  1921.55  1965.40  2026.92
                             2082.43  2088.86  2102.43  2146.58  2167.90
                             2625.65  4308.60  4341.42  4362.41  4454.72
                             4476.81  4481.30  4510.10  4516.11  4632.44
                             4652.26

 Zero-point correction=                           0.159726 (Hartree/Particle)
 Thermal correction to Energy=                    0.167677
 Thermal correction to Enthalpy=                  0.168621
 Thermal correction to Gibbs Free Energy=         0.127183
 Sum of electronic and zero-point Energies=           -423.040002
 Sum of electronic and thermal Energies=              -423.032052
 Sum of electronic and thermal Enthalpies=            -423.031107
 Sum of electronic and thermal Free Energies=         -423.072546

                     E (Thermal)             CV                S
                      KCal/Mol        Cal/Mol-Kelvin    Cal/Mol-Kelvin
 Total                  105.219             31.294             87.214
 Electronic               0.000              0.000              0.000
 Translational            0.889              2.981             40.409
 Rotational               0.889              2.981             28.656
 Vibrational            103.441             25.333             18.149
 Vibration     1          0.600              1.961              3.839
 Vibration     2          0.609              1.934              3.122
 Vibration     3          0.657              1.780              1.808
 Vibration     4          0.675              1.725              1.583
 Vibration     5          0.717              1.604              1.232
 Vibration     6          0.750              1.514              1.041
 Vibration     7          0.781              1.431              0.899
 Vibration     8          0.835              1.297              0.714
 Vibration     9          0.852              1.258              0.668
 Vibration    10          0.891              1.171              0.575

 Normal termination of Gaussian 09 at Mon Jan 27 13:52:26 2020.
