 Gaussian 09, Revision D.01,
 Gaussian 09:  ES64L-G09RevD.01 24-Apr-2013

 -----------------------------
 # b3lyp 6-31G(2df,p) opt Freq
 -----------------------------

 -----
 titel
 -----
 Symbolic Z-matrix:
 Charge =  0 Multiplicity = 1

 SCF Done:  E(RB3LYP) =  -423.160510517     A.U. after   13 cycles
 Optimization completed.
    -- Stationary point found.
 Normal termination of Gaussian 09 at Mon Jan 27 11:29:30 2020.

 ----------------------------------------------------------------------
 #N Geom=AllCheck Guess=TCheck SCRF=Check GenChk RB3LYP/6-31G(2df,p) Fr
 eq
 ----------------------------------------------------------------------

 Structure from the checkpoint file:  "/scratch/puck/g09_338cc764-f4e6-4f54-bf52-d55838b8e855/Gau-60790.chk"
 -----
 titel
 -----
 Charge =  0 Multiplicity = 1

                         Standard orientation:
 ---------------------------------------------------------------------
 Center     Atomic      Atomic             Coordinates (Angstroms)
 Number     Number       Type             X           Y           Z
 ---------------------------------------------------------------------
      1          6           0        1.813166    0.633251    0.562380
      2          6           0        1.951249   -0.894620    0.314081
      3          6           0        0.672652   -0.854730   -0.575171
      4          6           0       -0.582176   -1.251842    0.160552
      5          8           0       -1.819168   -0.986648   -0.512820
      6          6           0       -1.512445   -0.221985    0.649996
      7          6           0       -1.210026    1.245393    0.440989
      8          8           0       -0.310868    1.502170   -0.617404
      9          6           0        0.838447    0.692524   -0.650296
     10          1           0        1.315760    0.849391    1.510909
     11          1           0        2.714902    1.245543    0.499991
     12          1           0        2.842552   -1.148877   -0.263668
     13          1           0        1.914302   -1.543619    1.192830
     14          1           0        0.722856   -1.395881   -1.524269
     15          1           0       -0.552378   -2.217079    0.669786
     16          1           0       -2.136108   -0.435386    1.520104
     17          1           0       -2.129661    1.782619    0.185539
     18          1           0       -0.842944    1.660218    1.394750
     19          1           0        1.365811    0.990952   -1.559381
 ---------------------------------------------------------------------

 SCF Done:  E(RB3LYP) =  -423.160510517     A.U. after    1 cycles

 The electronic state is 1-A.
 Alpha  occ. eigenvalues --  -19.14735 -19.14245 -10.23768 -10.23730 -10.23355
 Alpha  occ. eigenvalues --  -10.23278 -10.18965 -10.18921 -10.18355  -1.07390
 Alpha  occ. eigenvalues --   -1.03270  -0.84537  -0.74187  -0.70341  -0.65844
 Alpha  occ. eigenvalues --   -0.62101  -0.60209  -0.53244  -0.50745  -0.50393
 Alpha  occ. eigenvalues --   -0.49071  -0.45882  -0.43368  -0.40534  -0.40042
 Alpha  occ. eigenvalues --   -0.39250  -0.36938  -0.36699  -0.34496  -0.33070
 Alpha  occ. eigenvalues --   -0.29315  -0.28231  -0.26388  -0.24915
 Alpha virt. eigenvalues --    0.07790   0.08668   0.09813   0.10412   0.11901
 Alpha virt. eigenvalues --    0.14217   0.14600   0.15063   0.16044   0.16908
 Alpha virt. eigenvalues --    0.17717   0.18896   0.19683   0.19815   0.21430

 Mulliken charges:
               1
     1  C   -0.266025
     2  C   -0.239754
     3  C   -0.089950
     4  C    0.049625
     5  O   -0.256836
     6  C    0.038558
     7  C   -0.122604
     8  O   -0.256606
     9  C    0.155280
    10  H    0.107246
    11  H    0.103842
    12  H    0.108443
    13  H    0.100497
    14  H    0.083021
    15  H    0.089891
    16  H    0.090606
    17  H    0.121658
    18  H    0.094353
    19  H    0.088754
 Sum of Mulliken charges =   0.00000

 Dipole moment (field-independent basis, Debye):
    X=              1.4512    Y=             -0.3609    Z=              1.8998  Tot=              2.4177
 Quadrupole moment (field-independent basis, Debye-Ang):
   XX=            -53.1185   YY=            -54.4363   ZZ=            -52.5829
   XY=             -2.3508   XZ=             -4.6009   YZ=              0.5819

  Exact polarizability:  81.931  -3.883  73.289  -3.907   1.841  65.617
 Approx polarizability: 111.833  -5.915 105.853  -2.207   3.176 104.191

                      1                      2                      3
                      A                      A                      A
 Frequencies --    109.3868               198.0952               238.0245
 Red. masses --      2.3077                 3.6675                 2.8504
 Frc consts  --      0.0163                 0.0848                 0.0951
 IR Inten    --      0.4643                 2.3917                 1.6630

                      4                      5                      6
                      A                      A                      A
 Frequencies --    350.1945               382.6121               397.6383
 Red. masses --      2.7574                 5.0811                 3.2358
 Frc consts  --      0.1992                 0.4383                 0.3014
 IR Inten    --      1.4467                 6.9235                 3.4085

                      7                      8                      9
                      A                      A                      A
 Frequencies --    512.9712               580.5928               656.0288
 Red. masses --      3.9101                 4.1583                 2.8722
 Frc consts  --      0.6062                 0.8259                 0.7283
 IR Inten    --      2.7066                 6.2660                 8.0073

                     10                     11                     12
                      A                      A                      A
 Frequencies --    748.3339               755.9767               793.9947
 Red. masses --      1.3906                 3.3499                 2.9448
 Frc consts  --      0.4588                 1.1280                 1.0938
 IR Inten    --      2.2859                10.9237                13.0246

                     13                     14                     15
                      A                      A                      A
 Frequencies --    839.2297               892.5811               903.3294
 Red. masses --      3.2481                 2.6397                 2.2651
 Frc consts  --      1.3479                 1.2391                 1.0890
 IR Inten    --      3.9304                22.7518                 6.1392

                     16                     17                     18
                      A                      A                      A
 Frequencies --    935.7942               942.5897               960.2588
 Red. masses --      2.9020                 2.4631                 2.4954
 Frc consts  --      1.4973                 1.2894                 1.3557
 IR Inten    --      4.1692                 6.2726                 6.1542

                     19                     20                     21
                      A                      A                      A
 Frequencies --    991.4369              1038.6347              1057.6136
 Red. masses --      2.2771                 1.5813                 1.8717
 Frc consts  --      1.3187                 1.0051                 1.2335
 IR Inten    --      7.3245                 3.2402                 8.3791

                     22                     23                     24
                      A                      A                      A
 Frequencies --   1082.5440              1094.9223              1128.1444
 Red. masses --      1.6060                 2.5907                 1.9018
 Frc consts  --      1.1089                 1.8300                 1.4261
 IR Inten    --      5.6460                23.6278                 1.2255

                     25                     26                     27
                      A                      A                      A
 Frequencies --   1169.7503              1191.0027              1201.7117
 Red. masses --      1.7891                 1.8514                 1.7601
 Frc consts  --      1.4424                 1.5473                 1.4976
 IR Inten    --     20.3700                35.8103                44.4685

                     28                     29                     30
                      A                      A                      A
 Frequencies --   1245.1448              1255.9812              1263.2471
 Red. masses --      1.3330                 1.2889                 1.3986
 Frc consts  --      1.2176                 1.1979                 1.3149
 IR Inten    --      9.2700                 1.3321                 9.2454

                     31                     32                     33
                      A                      A                      A
 Frequencies --   1276.6227              1280.3675              1301.2930
 Red. masses --      1.2774                 1.5620                 1.2518
 Frc consts  --      1.2266                 1.5086                 1.2489
 IR Inten    --      5.0852                11.7152                 7.7764

                     34                     35                     36
                      A                      A                      A
 Frequencies --   1349.6756              1368.0314              1388.3606
 Red. masses --      1.4589                 1.3458                 1.5040
 Frc consts  --      1.5658                 1.4839                 1.7081
 IR Inten    --      5.1624                 1.9728                 3.0730

                     37                     38                     39
                      A                      A                      A
 Frequencies --   1422.0690              1475.2750              1476.7869
 Red. masses --      1.4085                 1.8995                 1.2660
 Frc consts  --      1.6782                 2.4358                 1.6267
 IR Inten    --     10.6294                13.4260                 2.5511

                     40                     41                     42
                      A                      A                      A
 Frequencies --   1495.7203              1498.7498              2969.9397
 Red. masses --      1.1610                 1.1498                 1.0706
 Frc consts  --      1.5303                 1.5217                 5.5637
 IR Inten    --      8.0557                 9.3429                47.7180

                     43                     44                     45
                      A                      A                      A
 Frequencies --   3059.7640              3063.8353              3069.2508
 Red. masses --      1.0674                 1.0760                 1.0895
 Frc consts  --      5.8878                 5.9510                 6.0469
 IR Inten    --     23.5934                35.1286                21.4334

                     46                     47                     48
                      A                      A                      A
 Frequencies --   3072.9028              3082.3550              3085.8263
 Red. masses --      1.0615                 1.0871                 1.0854
 Frc consts  --      5.9054                 6.0856                 6.0893
 IR Inten    --     23.4788                27.7054                38.2829

                     49                     50                     51
                      A                      A                      A
 Frequencies --   3099.1682              3108.5375              3127.9810
 Red. masses --      1.0913                 1.1073                 1.1065
 Frc consts  --      6.1756                 6.3039                 6.3788
 IR Inten    --     43.2248                 5.9129                50.2802

 - Thermochemistry -
 -------------------
 Temperature   298.150 Kelvin.  Pressure   1.00000 Atm.
 Atom     1 has atomic number  6 and mass  12.00000

 Molecular mass:   126.06808 amu.
 Principal axes and moments of inertia in atomic units:
                           1         2         3
     Eigenvalues --   657.145071005.975881338.30400
           X            0.99885  -0.04438  -0.01800
           Y            0.04467   0.99887   0.01618
           Z            0.01727  -0.01697   0.99971
 This molecule is an asymmetric top.
 Rotational symmetry number  1.
 Warning -- assumption of classical behavior for rotation
           may cause significant error
 Rotational temperatures (Kelvin)      0.13180     0.08610     0.06472
 Rotational constants (GHZ):           2.74634     1.79402     1.34853
 Zero-point vibrational energy     424616.2 (Joules/Mol)
                                  101.48570 (Kcal/Mol)
 Warning -- explicit consideration of   8 degrees of freedom as
           vibrations may cause significant error
 Vibrational temperatures:    157.38   285.01   342.46   503.85   550.49
          (Kelvin)            572.11   738.05   835.34   943.88  1076.68
                             1087.68  1142.38  1207.46  1284.22  1299.69
                             1346.40  1356.17  1381.60  1426.45  1494.36
                             1521.67  1557.54  1575.35  1623.15  1683.01
                             1713.59  1728.99  1791.48  1807.07  1817.53
                             1836.77  1842.16  1872.27  1941.88  1968.29
                             1997.54  2046.04  2122.59  2124.76  2152.01
                             2156.36  4273.08  4402.31  4408.17  4415.96
                             4421.22  4434.82  4439.81  4459.01  4472.49
                             4500.46

 Zero-point correction=                           0.161728 (Hartree/Particle)
 Thermal correction to Energy=                    0.168796
 Thermal correction to Enthalpy=                  0.169740
 Thermal correction to Gibbs Free Energy=         0.130319
 Sum of electronic and zero-point Energies=           -422.998783
 Sum of electronic and thermal Energies=              -422.991714
 Sum of electronic and thermal Enthalpies=            -422.990770
 Sum of electronic and thermal Free Energies=         -423.030192

                     E (Thermal)             CV                S
                      KCal/Mol        Cal/Mol-Kelvin    Cal/Mol-Kelvin
 Total                  105.921             28.602             82.969
 Electronic               0.000              0.000              0.000
 Translational            0.889              2.981             40.409
 Rotational               0.889              2.981             28.272
 Vibrational            104.144             22.641             14.289
 Vibration     1          0.606              1.942              3.280
 Vibration     2          0.637              1.843              2.151
 Vibration     3          0.656              1.782              1.818
 Vibration     4          0.727              1.575              1.165
 Vibration     5          0.752              1.507              1.029
 Vibration     6          0.764              1.475              0.971
 Vibration     7          0.868              1.221              0.626
 Vibration     8          0.937              1.073              0.484

 Optimization completed.
    -- Stationary point found.
 Normal termination of Gaussian 09 at Mon Jan 27 13:38:49 2020.
