 Gaussian 09, Revision D.01,
 Gaussian 09:  ES64L-G09RevD.01 24-Apr-2013

 -----------------------------
 # b3lyp 6-31G(2df,p) opt Freq
 -----------------------------

 -----
 titel
 -----
 Symbolic Z-matrix:
 Charge =  0 Multiplicity = 1

 SCF Done:  E(RB3LYP) =  -423.194744933     A.U. after   14 cycles
 Optimization completed.
    -- Stationary point found.
 Normal termination of Gaussian 09 at Tue Jan 28 03:07:08 2020.

 ----------------------------------------------------------------------
 #N Geom=AllCheck Guess=TCheck SCRF=Check GenChk RB3LYP/6-31G(2df,p) Fr
 eq
 ----------------------------------------------------------------------

 Structure from the checkpoint file:  "/scratch/puck/g09_feae4ec1-6df2-4a21-9c35-baae8618fd3c/Gau-7324.chk"
 -----
 titel
 -----
 Charge =  0 Multiplicity = 1

                         Standard orientation:
 ---------------------------------------------------------------------
 Center     Atomic      Atomic             Coordinates (Angstroms)
 Number     Number       Type             X           Y           Z
 ---------------------------------------------------------------------
      1          6           0       -0.035925    2.172978    0.105767
      2          6           0        0.045736    0.669518    0.137536
      3          6           0        0.143634   -0.193663    1.452237
      4          6           0        0.697960   -1.313465    0.515300
      5          6           0       -0.529671   -1.601488   -0.378138
      6          6           0       -1.012174   -0.137214   -0.667864
      7          8           0       -2.351831    0.133716   -0.310182
      8          6           0        1.313820   -0.124662   -0.245516
      9          8           0        2.361223    0.136766   -0.758516
     10          1           0        0.705367    2.630203    0.767684
     11          1           0        0.150653    2.542483   -0.908335
     12          1           0       -1.031494    2.513591    0.406191
     13          1           0        0.880414    0.194254    2.157716
     14          1           0       -0.791015   -0.417442    1.976390
     15          1           0        1.288646   -2.151222    0.879418
     16          1           0       -0.280754   -2.155452   -1.286690
     17          1           0       -1.303888   -2.160723    0.157488
     18          1           0       -0.957399    0.110626   -1.731504
     19          1           0       -2.475946   -0.102196    0.615291
 ---------------------------------------------------------------------

 SCF Done:  E(RB3LYP) =  -423.194744933     A.U. after    1 cycles

 The electronic state is 1-A.
 Alpha  occ. eigenvalues --  -19.14751 -19.13877 -10.26919 -10.24488 -10.20776
 Alpha  occ. eigenvalues --  -10.20528 -10.20467 -10.19800 -10.18064  -1.04933
 Alpha  occ. eigenvalues --   -1.03092  -0.89701  -0.75369  -0.72587  -0.66436
 Alpha  occ. eigenvalues --   -0.63556  -0.58607  -0.52862  -0.49300  -0.48322
 Alpha  occ. eigenvalues --   -0.46191  -0.44978  -0.43816  -0.41413  -0.40028
 Alpha  occ. eigenvalues --   -0.38628  -0.37925  -0.36722  -0.36569  -0.34327
 Alpha  occ. eigenvalues --   -0.33742  -0.31708  -0.27417  -0.23516
 Alpha virt. eigenvalues --   -0.00856   0.06178   0.09673   0.10815   0.12495
 Alpha virt. eigenvalues --    0.13168   0.13735   0.15204   0.15889   0.16598
 Alpha virt. eigenvalues --    0.17066   0.18392   0.19584   0.20134   0.21328

 Mulliken charges:
               1
     1  C   -0.505092
     2  C    0.177340
     3  C   -0.300527
     4  C   -0.139619
     5  C   -0.270273
     6  C    0.115384
     7  O   -0.436255
     8  C    0.405248
     9  O   -0.326444
    10  H    0.121867
    11  H    0.132347
    12  H    0.127468
    13  H    0.120989
    14  H    0.089959
    15  H    0.086548
    16  H    0.118279
    17  H    0.104729
    18  H    0.099873
    19  H    0.278178
 Sum of Mulliken charges =   0.00000

 Dipole moment (field-independent basis, Debye):
    X=             -1.5314    Y=             -0.9716    Z=              2.0767  Tot=              2.7571
 Quadrupole moment (field-independent basis, Debye-Ang):
   XX=            -63.2856   YY=            -51.4364   ZZ=            -51.1841
   XY=              0.5206   XZ=              0.0050   YZ=              0.3155

  Exact polarizability:  78.192   0.608  77.483  -2.332  -1.093  69.069
 Approx polarizability: 122.329   2.265 106.027  -8.888  -3.422 108.742

                      1                      2                      3
                      A                      A                      A
 Frequencies --    128.1938               160.1041               186.0770
 Red. masses --      5.4009                 1.1315                 2.6060
 Frc consts  --      0.0523                 0.0171                 0.0532
 IR Inten    --      2.8611                 0.4043                 0.8762

                      4                      5                      6
                      A                      A                      A
 Frequencies --    208.5284               260.7432               278.8612
 Red. masses --      3.2882                 1.4181                 1.9439
 Frc consts  --      0.0842                 0.0568                 0.0891
 IR Inten    --      1.1935                34.4291                43.2195

                      7                      8                      9
                      A                      A                      A
 Frequencies --    347.5320               435.3947               449.2800
 Red. masses --      3.0175                 2.0911                 3.3849
 Frc consts  --      0.2147                 0.2336                 0.4026
 IR Inten    --     18.8508                 2.4257                 3.4987

                     10                     11                     12
                      A                      A                      A
 Frequencies --    528.7319               597.7874               686.7055
 Red. masses --      4.2056                 3.1012                 4.4492
 Frc consts  --      0.6927                 0.6529                 1.2362
 IR Inten    --      2.6218                 4.8199                 2.9991

                     13                     14                     15
                      A                      A                      A
 Frequencies --    695.0416               778.0022               790.1034
 Red. masses --      3.1828                 3.7871                 3.4196
 Frc consts  --      0.9059                 1.3506                 1.2577
 IR Inten    --      5.3393                 2.7307                14.3036

                     16                     17                     18
                      A                      A                      A
 Frequencies --    850.0675               865.7586               929.4087
 Red. masses --      2.4978                 2.8320                 2.0233
 Frc consts  --      1.0634                 1.2506                 1.0297
 IR Inten    --      7.1755                 6.2894                12.9201

                     19                     20                     21
                      A                      A                      A
 Frequencies --    936.9048               988.1919               994.5183
 Red. masses --      1.9746                 2.1325                 1.6364
 Frc consts  --      1.0212                 1.2269                 0.9536
 IR Inten    --      2.1226                22.7868                 0.3228

                     22                     23                     24
                      A                      A                      A
 Frequencies --   1015.8813              1063.8638              1084.8869
 Red. masses --      1.8835                 1.2427                 2.0683
 Frc consts  --      1.1452                 0.8287                 1.4343
 IR Inten    --      8.7804                 2.7717                54.7652

                     25                     26                     27
                      A                      A                      A
 Frequencies --   1100.5742              1147.6212              1155.6920
 Red. masses --      1.7952                 1.6597                 1.7656
 Frc consts  --      1.2812                 1.2879                 1.3894
 IR Inten    --     38.0080                34.6040                 4.2683

                     28                     29                     30
                      A                      A                      A
 Frequencies --   1194.1135              1224.5879              1233.8137
 Red. masses --      2.1079                 1.6984                 1.4768
 Frc consts  --      1.7709                 1.5006                 1.3246
 IR Inten    --     22.9580                 4.3389                 1.2767

                     31                     32                     33
                      A                      A                      A
 Frequencies --   1262.4861              1302.2566              1311.7768
 Red. masses --      1.7050                 1.4211                 1.5465
 Frc consts  --      1.6012                 1.4199                 1.5679
 IR Inten    --      0.0656                 8.1240                 1.4696

                     34                     35                     36
                      A                      A                      A
 Frequencies --   1352.9015              1412.2773              1441.4982
 Red. masses --      2.7329                 1.3686                 1.1939
 Frc consts  --      2.9472                 1.6083                 1.4617
 IR Inten    --      1.1972                 2.1721                60.8419

                     37                     38                     39
                      A                      A                      A
 Frequencies --   1485.8062              1487.9952              1492.5190
 Red. masses --      1.0700                 1.0642                 1.0512
 Frc consts  --      1.3917                 1.3883                 1.3796
 IR Inten    --      2.0045                 5.7841                 5.7758

                     40                     41                     42
                      A                      A                      A
 Frequencies --   1504.5687              1895.6068              3036.9553
 Red. masses --      1.1056                12.3317                 1.0353
 Frc consts  --      1.4745                26.1077                 5.6259
 IR Inten    --      2.7609               295.5998                22.3100

                     43                     44                     45
                      A                      A                      A
 Frequencies --   3049.6545              3051.8351              3074.3197
 Red. masses --      1.0614                 1.0606                 1.0879
 Frc consts  --      5.8162                 5.8202                 6.0582
 IR Inten    --     21.2610                32.0523                16.0608

                     46                     47                     48
                      A                      A                      A
 Frequencies --   3103.3465              3105.9403              3111.9409
 Red. masses --      1.1002                 1.1029                 1.1021
 Frc consts  --      6.2431                 6.2685                 6.2881
 IR Inten    --      9.9284                27.9673                12.0159

                     49                     50                     51
                      A                      A                      A
 Frequencies --   3124.1216              3146.7304              3809.1763
 Red. masses --      1.1044                 1.0911                 1.0656
 Frc consts  --      6.3508                 6.3657                 9.1097
 IR Inten    --     17.7876                23.9334                10.5149

 - Thermochemistry -
 -------------------
 Temperature   298.150 Kelvin.  Pressure   1.00000 Atm.
 Atom     1 has atomic number  6 and mass  12.00000

 Molecular mass:   126.06808 amu.
 Principal axes and moments of inertia in atomic units:
                           1         2         3
     Eigenvalues --   758.820321060.739201366.79574
           X            0.99990   0.01058   0.00965
           Y           -0.01065   0.99992   0.00745
           Z           -0.00957  -0.00755   0.99993
 This molecule is an asymmetric top.
 Rotational symmetry number  1.
 Warning -- assumption of classical behavior for rotation
           may cause significant error
 Rotational temperatures (Kelvin)      0.11414     0.08165     0.06337
 Rotational constants (GHZ):           2.37835     1.70140     1.32042
 Zero-point vibrational energy     417979.3 (Joules/Mol)
                                   99.89945 (Kcal/Mol)
 Warning -- explicit consideration of  11 degrees of freedom as
           vibrations may cause significant error
 Vibrational temperatures:    184.44   230.35   267.72   300.03   375.15
          (Kelvin)            401.22   500.02   626.44   646.41   760.73
                              860.08   988.01  1000.01  1119.37  1136.78
                             1223.06  1245.63  1337.21  1348.00  1421.79
                             1430.89  1461.62  1530.66  1560.91  1583.48
                             1651.17  1662.78  1718.06  1761.91  1775.18
                             1816.43  1873.65  1887.35  1946.52  2031.95
                             2073.99  2137.74  2140.89  2147.40  2164.74
                             2727.35  4369.50  4387.77  4390.90  4423.25
                             4465.02  4468.75  4477.38  4494.91  4527.44
                             5480.55

 Zero-point correction=                           0.159200 (Hartree/Particle)
 Thermal correction to Energy=                    0.167637
 Thermal correction to Enthalpy=                  0.168581
 Thermal correction to Gibbs Free Energy=         0.126609
 Sum of electronic and zero-point Energies=           -423.035545
 Sum of electronic and thermal Energies=              -423.027108
 Sum of electronic and thermal Enthalpies=            -423.026163
 Sum of electronic and thermal Free Energies=         -423.068136

                     E (Thermal)             CV                S
                      KCal/Mol        Cal/Mol-Kelvin    Cal/Mol-Kelvin
 Total                  105.194             32.740             88.338
 Electronic               0.000              0.000              0.000
 Translational            0.889              2.981             40.409
 Rotational               0.889              2.981             28.488
 Vibrational            103.417             26.779             19.441
 Vibration     1          0.611              1.925              2.973
 Vibration     2          0.622              1.891              2.549
 Vibration     3          0.632              1.859              2.267
 Vibration     4          0.642              1.828              2.057
 Vibration     5          0.669              1.745              1.657
 Vibration     6          0.679              1.713              1.541
 Vibration     7          0.725              1.580              1.177
 Vibration     8          0.796              1.393              0.841
 Vibration     9          0.808              1.362              0.798
 Vibration    10          0.884              1.186              0.590
 Vibration    11          0.956              1.036              0.453

 Normal termination of Gaussian 09 at Tue Jan 28 03:52:23 2020.
