 Gaussian 09, Revision D.01,
 Gaussian 09:  ES64L-G09RevD.01 24-Apr-2013

 -----------------------------
 # b3lyp 6-31G(2df,p) opt Freq
 -----------------------------

 -----
 titel
 -----
 Symbolic Z-matrix:
 Charge =  0 Multiplicity = 1

 SCF Done:  E(RB3LYP) =  -423.143952744     A.U. after   14 cycles
 SCF Done:  E(RB3LYP) =  -423.143952847     A.U. after    7 cycles
 SCF Done:  E(RB3LYP) =  -423.143953040     A.U. after    6 cycles
 Optimization completed.
    -- Stationary point found.
 Normal termination of Gaussian 09 at Mon Jan 27 23:00:42 2020.

 ----------------------------------------------------------------------
 #N Geom=AllCheck Guess=TCheck SCRF=Check GenChk RB3LYP/6-31G(2df,p) Fr
 eq
 ----------------------------------------------------------------------

 Structure from the checkpoint file:  "/scratch/puck/g09_12d61c2f-059d-4dc2-96aa-53a62357daa9/Gau-82584.chk"
 -----
 titel
 -----
 Charge =  0 Multiplicity = 1

                         Standard orientation:
 ---------------------------------------------------------------------
 Center     Atomic      Atomic             Coordinates (Angstroms)
 Number     Number       Type             X           Y           Z
 ---------------------------------------------------------------------
      1          6           0        0.400347    2.053323    0.006292
      2          6           0       -0.233993    0.688712    0.004003
      3          8           0       -1.654255    0.831266    0.001603
      4          6           0       -2.125878   -0.517578   -0.000103
      5          6           0       -0.810365   -1.275225    0.002669
      6          6           0        0.158058   -0.497570    0.956864
      7          6           0        1.304743   -0.897680   -0.006859
      8          8           0        2.482175   -0.128708   -0.091763
      9          6           0        0.161513   -0.497321   -0.950447
     10          1           0        1.485721    1.973903    0.000095
     11          1           0        0.072906    2.614888   -0.874396
     12          1           0        0.078360    2.609900    0.892404
     13          1           0       -2.738940   -0.710552    0.889770
     14          1           0       -2.734669   -0.709411   -0.893189
     15          1           0       -0.818368   -2.365357    0.000774
     16          1           0        0.145822   -0.508560    2.048567
     17          1           0        1.541657   -1.969996   -0.007291
     18          1           0        3.061569   -0.388331    0.631262
     19          1           0        0.156035   -0.506910   -2.041231
 ---------------------------------------------------------------------

 SCF Done:  E(RB3LYP) =  -423.143953040     A.U. after    1 cycles

 The electronic state is 1-A.
 Alpha  occ. eigenvalues --  -19.14176 -19.12822 -10.23849 -10.23789 -10.22132
 Alpha  occ. eigenvalues --  -10.19947 -10.19304 -10.19221 -10.16332  -1.04107
 Alpha  occ. eigenvalues --   -1.02393  -0.88901  -0.75265  -0.68687  -0.64051
 Alpha  occ. eigenvalues --   -0.63349  -0.58452  -0.53342  -0.50160  -0.49422
 Alpha  occ. eigenvalues --   -0.47315  -0.45529  -0.41594  -0.41128  -0.39652
 Alpha  occ. eigenvalues --   -0.37272  -0.35148  -0.33326  -0.33088  -0.32156
 Alpha  occ. eigenvalues --   -0.30902  -0.29843  -0.26474  -0.23378
 Alpha virt. eigenvalues --    0.07578   0.11435   0.11879   0.13165   0.13739
 Alpha virt. eigenvalues --    0.13977   0.14092   0.15048   0.16286   0.16739
 Alpha virt. eigenvalues --    0.18692   0.18849   0.19398   0.20847   0.22277

 Mulliken charges:
               1
     1  C   -0.499352
     2  C    0.502074
     3  O   -0.318791
     4  C   -0.110096
     5  C   -0.065907
     6  C   -0.189371
     7  C    0.126715
     8  O   -0.438393
     9  C   -0.155615
    10  H    0.144697
    11  H    0.122519
    12  H    0.119216
    13  H    0.099007
    14  H    0.099897
    15  H    0.072041
    16  H    0.066537
    17  H    0.067672
    18  H    0.284089
    19  H    0.073060
 Sum of Mulliken charges =   0.00000

 Dipole moment (field-independent basis, Debye):
    X=              0.8069    Y=             -1.9872    Z=              1.0389  Tot=              2.3831
 Quadrupole moment (field-independent basis, Debye-Ang):
   XX=            -52.4397   YY=            -52.6636   ZZ=            -51.4704
   XY=              1.2965   XZ=              3.8844   YZ=             -0.4489

  Exact polarizability:  83.087   2.752  75.773   1.433  -0.246  66.528
 Approx polarizability: 115.293   2.128 108.895   1.388  -0.810 105.877

                      1                      2                      3
                      A                      A                      A
 Frequencies --    199.0573               218.4228               247.9033
 Red. masses --      1.0587                 2.8860                 3.6215
 Frc consts  --      0.0247                 0.0811                 0.1311
 IR Inten    --      3.1885                 2.6260                 1.2214

                      4                      5                      6
                      A                      A                      A
 Frequencies --    266.1820               279.3409               345.5665
 Red. masses --      1.8723                 1.4200                 2.8399
 Frc consts  --      0.0782                 0.0653                 0.1998
 IR Inten    --     31.7446                73.0730                 0.3915

                      7                      8                      9
                      A                      A                      A
 Frequencies --    401.1184               455.2106               504.4954
 Red. masses --      2.8885                 2.8647                 5.5802
 Frc consts  --      0.2738                 0.3497                 0.8368
 IR Inten    --      3.1862                 1.7307                 7.3643

                     10                     11                     12
                      A                      A                      A
 Frequencies --    651.1517               726.9340               732.3757
 Red. masses --      3.7982                 4.8176                 3.9041
 Frc consts  --      0.9488                 1.4999                 1.2338
 IR Inten    --      0.2519                 9.3686                 9.5758

                     13                     14                     15
                      A                      A                      A
 Frequencies --    754.2424               802.2805               870.2009
 Red. masses --      3.2459                 2.6155                 2.2939
 Frc consts  --      1.0879                 0.9919                 1.0234
 IR Inten    --      0.7822                 1.1283                35.1411

                     16                     17                     18
                      A                      A                      A
 Frequencies --    917.1911               918.3810               941.3621
 Red. masses --      1.9039                 2.4258                 2.6719
 Frc consts  --      0.9437                 1.2055                 1.3950
 IR Inten    --      4.6278                 9.9674                 6.5813

                     19                     20                     21
                      A                      A                      A
 Frequencies --    976.4641               996.1526              1039.3801
 Red. masses --      1.7985                 1.1177                 5.9274
 Frc consts  --      1.0103                 0.6535                 3.7728
 IR Inten    --      1.1398                 0.9718                92.9014

                     22                     23                     24
                      A                      A                      A
 Frequencies --   1055.9024              1078.9891              1097.5725
 Red. masses --      1.5348                 3.4534                 1.5018
 Frc consts  --      1.0082                 2.3688                 1.0659
 IR Inten    --      5.4667                 7.3921                 0.6383

                     25                     26                     27
                      A                      A                      A
 Frequencies --   1113.4455              1137.5295              1155.5306
 Red. masses --      3.0941                 1.5608                 1.9294
 Frc consts  --      2.2601                 1.1899                 1.5179
 IR Inten    --     36.5319                 5.7221                14.0224

                     28                     29                     30
                      A                      A                      A
 Frequencies --   1162.4681              1200.3846              1203.8915
 Red. masses --      1.5778                 1.2831                 2.1129
 Frc consts  --      1.2562                 1.0893                 1.8042
 IR Inten    --      0.4511                24.6121                39.7531

                     31                     32                     33
                      A                      A                      A
 Frequencies --   1225.5407              1262.0165              1302.9631
 Red. masses --      1.3515                 2.1283                 1.6629
 Frc consts  --      1.1960                 1.9972                 1.6633
 IR Inten    --     38.2557                76.0929                11.5849

                     34                     35                     36
                      A                      A                      A
 Frequencies --   1319.9290              1337.1841              1373.8799
 Red. masses --      2.0762                 1.9108                 1.4675
 Frc consts  --      2.1312                 2.0130                 1.6320
 IR Inten    --      0.8441                29.6925                12.6322

                     37                     38                     39
                      A                      A                      A
 Frequencies --   1412.3224              1449.7615              1493.3601
 Red. masses --      1.5760                 1.3471                 1.0551
 Frc consts  --      1.8521                 1.6681                 1.3863
 IR Inten    --     20.4975                10.5398                 2.1329

                     40                     41                     42
                      A                      A                      A
 Frequencies --   1493.9605              1526.0129              3010.0428
 Red. masses --      1.0477                 1.0986                 1.0841
 Frc consts  --      1.3777                 1.5073                 5.7869
 IR Inten    --      3.6849                 0.4864                69.2940

                     43                     44                     45
                      A                      A                      A
 Frequencies --   3011.2976              3045.9978              3046.3315
 Red. masses --      1.0559                 1.0395                 1.1094
 Frc consts  --      5.6412                 5.6826                 6.0661
 IR Inten    --     77.8001                25.5755                36.2572

                     46                     47                     48
                      A                      A                      A
 Frequencies --   3094.1462              3103.5467              3106.6887
 Red. masses --      1.0900                 1.1003                 1.0896
 Frc consts  --      6.1483                 6.2444                 6.1958
 IR Inten    --     57.1585                16.5410                33.5887

                     49                     50                     51
                      A                      A                      A
 Frequencies --   3121.1229              3174.9050              3821.7531
 Red. masses --      1.0916                 1.0971                 1.0662
 Frc consts  --      6.2654                 6.5155                 9.1749
 IR Inten    --     36.6297                 1.8968                29.9603

 - Thermochemistry -
 -------------------
 Temperature   298.150 Kelvin.  Pressure   1.00000 Atm.
 Atom     1 has atomic number  6 and mass  12.00000

 Molecular mass:   126.06808 amu.
 Principal axes and moments of inertia in atomic units:
                           1         2         3
     Eigenvalues --   602.186611043.090831402.80818
           X            0.99923   0.03832   0.00844
           Y           -0.03831   0.99926  -0.00152
           Z           -0.00849   0.00120   0.99996
 This molecule is an asymmetric top.
 Rotational symmetry number  1.
 Warning -- assumption of classical behavior for rotation
           may cause significant error
 Rotational temperatures (Kelvin)      0.14383     0.08304     0.06174
 Rotational constants (GHZ):           2.99698     1.73019     1.28652
 Zero-point vibrational energy     419780.9 (Joules/Mol)
                                  100.33005 (Kcal/Mol)
 Warning -- explicit consideration of   9 degrees of freedom as
           vibrations may cause significant error
 Vibrational temperatures:    286.40   314.26   356.68   382.98   401.91
          (Kelvin)            497.19   577.12   654.95   725.86   936.86
                             1045.89  1053.72  1085.19  1154.30  1252.02
                             1319.63  1321.34  1354.41  1404.91  1433.24
                             1495.43  1519.21  1552.42  1579.16  1602.00
                             1636.65  1662.55  1672.53  1727.08  1732.13
                             1763.28  1815.76  1874.67  1899.08  1923.91
                             1976.70  2032.01  2085.88  2148.61  2149.47
                             2195.59  4330.77  4332.58  4382.51  4382.99
                             4451.78  4465.31  4469.83  4490.59  4567.97
                             5498.64

 Zero-point correction=                           0.159886 (Hartree/Particle)
 Thermal correction to Energy=                    0.167487
 Thermal correction to Enthalpy=                  0.168431
 Thermal correction to Gibbs Free Energy=         0.128436
 Sum of electronic and zero-point Energies=           -422.984067
 Sum of electronic and thermal Energies=              -422.976466
 Sum of electronic and thermal Enthalpies=            -422.975522
 Sum of electronic and thermal Free Energies=         -423.015517

                     E (Thermal)             CV                S
                      KCal/Mol        Cal/Mol-Kelvin    Cal/Mol-Kelvin
 Total                  105.100             30.974             84.177
 Electronic               0.000              0.000              0.000
 Translational            0.889              2.981             40.409
 Rotational               0.889              2.981             28.268
 Vibrational            103.322             25.013             15.501
 Vibration     1          0.637              1.841              2.142
 Vibration     2          0.646              1.813              1.972
 Vibration     3          0.662              1.766              1.745
 Vibration     4          0.672              1.735              1.621
 Vibration     5          0.680              1.712              1.538
 Vibration     6          0.724              1.584              1.186
 Vibration     7          0.767              1.468              0.959
 Vibration     8          0.814              1.349              0.780
 Vibration     9          0.860              1.240              0.647

 Normal termination of Gaussian 09 at Mon Jan 27 23:47:31 2020.
