 Gaussian 09, Revision D.01,
 Gaussian 09:  ES64L-G09RevD.01 24-Apr-2013

 -----------------------------
 # b3lyp 6-31G(2df,p) opt Freq
 -----------------------------

 -----
 titel
 -----
 Symbolic Z-matrix:
 Charge =  0 Multiplicity = 1

 SCF Done:  E(RB3LYP) =  -423.198962221     A.U. after   14 cycles
 Optimization completed.
    -- Stationary point found.
 Normal termination of Gaussian 09 at Tue Jan 28 09:07:32 2020.

 ----------------------------------------------------------------------
 #N Geom=AllCheck Guess=TCheck SCRF=Check GenChk RB3LYP/6-31G(2df,p) Fr
 eq
 ----------------------------------------------------------------------

 Structure from the checkpoint file:  "/scratch/puck/g09_a22fcde8-ced3-49a1-b79a-d7f525a9994d/Gau-20086.chk"
 -----
 titel
 -----
 Charge =  0 Multiplicity = 1

                         Standard orientation:
 ---------------------------------------------------------------------
 Center     Atomic      Atomic             Coordinates (Angstroms)
 Number     Number       Type             X           Y           Z
 ---------------------------------------------------------------------
      1          6           0       -0.177969    2.457662    0.103909
      2          6           0        0.865611    1.361594   -0.109777
      3          6           0        0.287929   -0.062833   -0.077756
      4          8           0       -0.674881   -0.250525   -1.122182
      5          6           0       -1.914411   -0.727512   -0.596446
      6          6           0       -1.697164   -0.813096    0.887303
      7          6           0       -0.461780   -0.428632    1.185687
      8          6           0        1.404723   -1.100555   -0.278188
      9          8           0        2.519445   -1.001058    0.161262
     10          1           0        0.286139    3.446185    0.040600
     11          1           0       -0.958197    2.401669   -0.660459
     12          1           0       -0.658317    2.374601    1.083741
     13          1           0        1.355738    1.497326   -1.080710
     14          1           0        1.658243    1.411959    0.643481
     15          1           0       -2.725511   -0.033884   -0.864837
     16          1           0       -2.160200   -1.702998   -1.042553
     17          1           0       -2.463574   -1.133358    1.581760
     18          1           0       -0.000321   -0.384368    2.163349
     19          1           0        1.067858   -1.984238   -0.865400
 ---------------------------------------------------------------------

 SCF Done:  E(RB3LYP) =  -423.198962221     A.U. after    1 cycles

 The electronic state is 1-A.
 Alpha  occ. eigenvalues --  -19.14820 -19.14357 -10.26807 -10.24858 -10.24233
 Alpha  occ. eigenvalues --  -10.20272 -10.20018 -10.18446 -10.17391  -1.05498
 Alpha  occ. eigenvalues --   -1.04210  -0.80745  -0.78985  -0.72978  -0.64948
 Alpha  occ. eigenvalues --   -0.61651  -0.58546  -0.54776  -0.51106  -0.48450
 Alpha  occ. eigenvalues --   -0.46794  -0.44912  -0.43610  -0.42026  -0.41818
 Alpha  occ. eigenvalues --   -0.39346  -0.37669  -0.36131  -0.34709  -0.34475
 Alpha  occ. eigenvalues --   -0.32900  -0.28997  -0.27873  -0.23212
 Alpha virt. eigenvalues --   -0.03400   0.01754   0.09068   0.10924   0.12214
 Alpha virt. eigenvalues --    0.13751   0.13893   0.15145   0.15537   0.15983
 Alpha virt. eigenvalues --    0.16740   0.17818   0.19939   0.21127   0.21369

 Mulliken charges:
               1
     1  C   -0.402093
     2  C   -0.197856
     3  C    0.242048
     4  O   -0.309241
     5  C   -0.132057
     6  C   -0.096007
     7  C   -0.118929
     8  C    0.133379
     9  O   -0.257288
    10  H    0.115246
    11  H    0.127344
    12  H    0.115761
    13  H    0.110271
    14  H    0.119135
    15  H    0.112891
    16  H    0.112908
    17  H    0.116110
    18  H    0.122289
    19  H    0.086089
 Sum of Mulliken charges =   0.00000

 Dipole moment (field-independent basis, Debye):
    X=             -2.8004    Y=              0.0383    Z=              0.8226  Tot=              2.9190
 Quadrupole moment (field-independent basis, Debye-Ang):
   XX=            -56.9851   YY=            -52.2979   ZZ=            -52.7885
   XY=              4.4702   XZ=             -1.8321   YZ=              0.2310

  Exact polarizability:  92.927   6.047  73.445   2.958   2.286  65.913
 Approx polarizability: 144.947  11.316  97.492  10.262   3.647 102.455

                      1                      2                      3
                      A                      A                      A
 Frequencies --     64.8883                84.0734               101.8895
 Red. masses --      3.5644                 2.2330                 2.8284
 Frc consts  --      0.0088                 0.0093                 0.0173
 IR Inten    --      6.8553                 1.2968                 0.7329

                      4                      5                      6
                      A                      A                      A
 Frequencies --    181.6070               207.0965               231.4288
 Red. masses --      3.6754                 1.3482                 1.7646
 Frc consts  --      0.0714                 0.0341                 0.0557
 IR Inten    --      1.8452                 0.2033                 1.7712

                      7                      8                      9
                      A                      A                      A
 Frequencies --    288.4679               335.6194               400.6498
 Red. masses --      4.2289                 2.2825                 2.7527
 Frc consts  --      0.2073                 0.1515                 0.2603
 IR Inten    --     14.2477                 1.7508                 2.4463

                     10                     11                     12
                      A                      A                      A
 Frequencies --    460.5963               564.3038               682.4999
 Red. masses --      5.5689                 2.9137                 3.2784
 Frc consts  --      0.6961                 0.5467                 0.8997
 IR Inten    --      0.1845                 2.7376                 6.0936

                     13                     14                     15
                      A                      A                      A
 Frequencies --    739.3153               770.9418               782.2026
 Red. masses --      1.3798                 2.4946                 1.8682
 Frc consts  --      0.4443                 0.8736                 0.6735
 IR Inten    --     44.4499                15.9526                 5.2357

                     16                     17                     18
                      A                      A                      A
 Frequencies --    829.5703               911.8939               947.4615
 Red. masses --      4.6540                 2.0916                 1.9394
 Frc consts  --      1.8870                 1.0247                 1.0258
 IR Inten    --      4.7657                 3.1553                 6.7775

                     19                     20                     21
                      A                      A                      A
 Frequencies --    962.0599               966.7627              1021.6246
 Red. masses --      1.6865                 1.6129                 1.8596
 Frc consts  --      0.9197                 0.8882                 1.1435
 IR Inten    --      0.8526                 1.1945                10.4786

                     22                     23                     24
                      A                      A                      A
 Frequencies --   1034.5559              1048.0751              1070.2836
 Red. masses --      2.2334                 1.6791                 2.5565
 Frc consts  --      1.4084                 1.0867                 1.7254
 IR Inten    --     15.2256                12.4359                35.3492

                     25                     26                     27
                      A                      A                      A
 Frequencies --   1112.9415              1134.5657              1169.9042
 Red. masses --      1.8333                 3.2386                 2.1666
 Frc consts  --      1.3379                 2.4562                 1.7471
 IR Inten    --     57.9956                 3.3768                20.7628

                     28                     29                     30
                      A                      A                      A
 Frequencies --   1198.4544              1206.6056              1299.3337
 Red. masses --      1.4656                 1.7477                 1.1972
 Frc consts  --      1.2403                 1.4991                 1.1909
 IR Inten    --      1.6357                 6.8909                 1.0504

                     31                     32                     33
                      A                      A                      A
 Frequencies --   1340.7397              1365.7639              1381.0514
 Red. masses --      1.6856                 1.4107                 1.5267
 Frc consts  --      1.7853                 1.5503                 1.7157
 IR Inten    --      0.4957                 4.0588                 1.9064

                     34                     35                     36
                      A                      A                      A
 Frequencies --   1388.4870              1408.2278              1476.7174
 Red. masses --      1.2523                 1.2477                 1.0771
 Frc consts  --      1.4225                 1.4578                 1.3839
 IR Inten    --      5.0437                 3.3295                 1.8645

                     37                     38                     39
                      A                      A                      A
 Frequencies --   1495.2406              1507.8656              1519.9869
 Red. masses --      1.0415                 1.0548                 1.0842
 Frc consts  --      1.3720                 1.4129                 1.4758
 IR Inten    --      5.9061                 3.0739                 1.4167

                     40                     41                     42
                      A                      A                      A
 Frequencies --   1681.8305              1829.6871              2886.1294
 Red. masses --      6.6116                11.1077                 1.0849
 Frc consts  --     11.0185                21.9094                 5.3243
 IR Inten    --      1.3736               168.7267                90.2644

                     43                     44                     45
                      A                      A                      A
 Frequencies --   2985.2227              3004.8073              3042.0852
 Red. masses --      1.0558                 1.1063                 1.0367
 Frc consts  --      5.5435                 5.8853                 5.6527
 IR Inten    --     77.8895                37.1103                17.0706

                     46                     47                     48
                      A                      A                      A
 Frequencies --   3044.7487              3086.8409              3110.3628
 Red. masses --      1.0611                 1.0988                 1.1015
 Frc consts  --      5.7956                 6.1686                 6.2787
 IR Inten    --     20.1563                 2.4180                31.7228

                     49                     50                     51
                      A                      A                      A
 Frequencies --   3119.0734              3211.1613              3236.6079
 Red. masses --      1.1017                 1.0860                 1.1061
 Frc consts  --      6.3149                 6.5978                 6.8269
 IR Inten    --     25.5414                 1.3285                 4.5686

 - Thermochemistry -
 -------------------
 Temperature   298.150 Kelvin.  Pressure   1.00000 Atm.
 Atom     1 has atomic number  6 and mass  12.00000

 Molecular mass:   126.06808 amu.
 Principal axes and moments of inertia in atomic units:
                           1         2         3
     Eigenvalues --   870.092581125.718151528.31503
           X            0.99683   0.07955  -0.00346
           Y           -0.07950   0.99677   0.01177
           Z            0.00439  -0.01145   0.99992
 This molecule is an asymmetric top.
 Rotational symmetry number  1.
 Warning -- assumption of classical behavior for rotation
           may cause significant error
 Rotational temperatures (Kelvin)      0.09955     0.07694     0.05667
 Rotational constants (GHZ):           2.07419     1.60319     1.18087
 Zero-point vibrational energy     412306.8 (Joules/Mol)
                                   98.54368 (Kcal/Mol)
 Warning -- explicit consideration of  11 degrees of freedom as
           vibrations may cause significant error
 Vibrational temperatures:     93.36   120.96   146.60   261.29   297.97
          (Kelvin)            332.97   415.04   482.88   576.45   662.69
                              811.91   981.96  1063.71  1109.21  1125.41
                             1193.57  1312.01  1363.18  1384.19  1390.95
                             1469.89  1488.49  1507.94  1539.90  1601.27
                             1632.38  1683.23  1724.31  1736.03  1869.45
                             1929.02  1965.03  1987.02  1997.72  2026.12
                             2124.66  2151.31  2169.48  2186.92  2419.78
                             2632.51  4152.49  4295.06  4323.24  4376.88
                             4380.71  4441.27  4475.11  4487.65  4620.14
                             4656.75

 Zero-point correction=                           0.157039 (Hartree/Particle)
 Thermal correction to Energy=                    0.166320
 Thermal correction to Enthalpy=                  0.167264
 Thermal correction to Gibbs Free Energy=         0.122433
 Sum of electronic and zero-point Energies=           -423.041923
 Sum of electronic and thermal Energies=              -423.032642
 Sum of electronic and thermal Enthalpies=            -423.031698
 Sum of electronic and thermal Free Energies=         -423.076529

                     E (Thermal)             CV                S
                      KCal/Mol        Cal/Mol-Kelvin    Cal/Mol-Kelvin
 Total                  104.367             33.470             94.354
 Electronic               0.000              0.000              0.000
 Translational            0.889              2.981             40.409
 Rotational               0.889              2.981             28.794
 Vibrational            102.590             27.509             25.151
 Vibration     1          0.597              1.971              4.303
 Vibration     2          0.601              1.960              3.793
 Vibration     3          0.604              1.948              3.418
 Vibration     4          0.630              1.865              2.312
 Vibration     5          0.641              1.830              2.069
 Vibration     6          0.653              1.793              1.868
 Vibration     7          0.685              1.695              1.483
 Vibration     8          0.717              1.604              1.233
 Vibration     9          0.766              1.469              0.960
 Vibration    10          0.818              1.337              0.764
 Vibration    11          0.920              1.108              0.515

 Optimization completed.
    -- Stationary point found.
 Normal termination of Gaussian 09 at Tue Jan 28 09:51:01 2020.
