 Gaussian 09, Revision D.01,
 Gaussian 09:  ES64L-G09RevD.01 24-Apr-2013

 -----------------------------
 # b3lyp 6-31G(2df,p) opt Freq
 -----------------------------

 -----
 titel
 -----
 Symbolic Z-matrix:
 Charge =  0 Multiplicity = 1

 SCF Done:  E(RB3LYP) =  -423.175707321     A.U. after   13 cycles
 Optimization completed.
    -- Stationary point found.
 Normal termination of Gaussian 09 at Tue Jan 28 03:10:02 2020.

 ----------------------------------------------------------------------
 #N Geom=AllCheck Guess=TCheck SCRF=Check GenChk RB3LYP/6-31G(2df,p) Fr
 eq
 ----------------------------------------------------------------------

 Structure from the checkpoint file:  "/scratch/puck/g09_c019cd34-b0b6-4d33-8bfe-dadc2f540dd3/Gau-44855.chk"
 -----
 titel
 -----
 Charge =  0 Multiplicity = 1

                         Standard orientation:
 ---------------------------------------------------------------------
 Center     Atomic      Atomic             Coordinates (Angstroms)
 Number     Number       Type             X           Y           Z
 ---------------------------------------------------------------------
      1          8           0       -2.339183   -1.299220   -0.128335
      2          6           0       -1.384589   -0.303595   -0.427342
      3          6           0       -1.620185    1.123877    0.144045
      4          6           0       -0.179325    1.090044    0.741395
      5          6           0        0.918073    1.648694   -0.121278
      6          6           0        1.657444    0.703635   -0.703689
      7          6           0        1.215277   -0.693332   -0.333552
      8          8           0        2.240792   -1.294368    0.455948
      9          6           0       -0.099753   -0.439223    0.427379
     10          1           0       -3.121134   -1.138164   -0.666364
     11          1           0       -1.156899   -0.288014   -1.503404
     12          1           0       -1.855370    1.923638   -0.563396
     13          1           0       -2.382708    1.095622    0.927170
     14          1           0       -0.102931    1.423524    1.780194
     15          1           0        1.074954    2.716628   -0.239422
     16          1           0        2.509592    0.875633   -1.351365
     17          1           0        1.031200   -1.308365   -1.230656
     18          1           0        1.997578   -2.215640    0.594925
     19          1           0       -0.248805   -1.116766    1.269670
 ---------------------------------------------------------------------

 SCF Done:  E(RB3LYP) =  -423.175707321     A.U. after    1 cycles

 The electronic state is 1-A.
 Alpha  occ. eigenvalues --  -19.13640 -19.12782 -10.22923 -10.22812 -10.18654
 Alpha  occ. eigenvalues --  -10.18240 -10.17726 -10.17630 -10.17613  -1.01883
 Alpha  occ. eigenvalues --   -1.00906  -0.86001  -0.76713  -0.70323  -0.64604
 Alpha  occ. eigenvalues --   -0.62026  -0.54575  -0.52944  -0.52273  -0.49578
 Alpha  occ. eigenvalues --   -0.48028  -0.46238  -0.42784  -0.38983  -0.38789
 Alpha  occ. eigenvalues --   -0.37230  -0.34939  -0.33664  -0.32495  -0.31899
 Alpha  occ. eigenvalues --   -0.30062  -0.26977  -0.25538  -0.24192
 Alpha virt. eigenvalues --    0.01407   0.07393   0.09453   0.10826   0.11690
 Alpha virt. eigenvalues --    0.13724   0.14292   0.14705   0.16288   0.17255
 Alpha virt. eigenvalues --    0.18259   0.19267   0.20151   0.22653   0.23567

 Mulliken charges:
               1
     1  O   -0.436529
     2  C    0.125780
     3  C   -0.282170
     4  C   -0.065874
     5  C   -0.073276
     6  C   -0.071997
     7  C    0.072561
     8  O   -0.444257
     9  C   -0.057422
    10  H    0.281487
    11  H    0.064175
    12  H    0.092200
    13  H    0.104308
    14  H    0.080041
    15  H    0.093294
    16  H    0.096608
    17  H    0.065544
    18  H    0.279385
    19  H    0.076142
 Sum of Mulliken charges =   0.00000

 Dipole moment (field-independent basis, Debye):
    X=             -1.5813    Y=              0.3390    Z=             -1.1673  Tot=              1.9945
 Quadrupole moment (field-independent basis, Debye-Ang):
   XX=            -53.9900   YY=            -49.9891   ZZ=            -51.9244
   XY=             -1.6139   XZ=              0.8836   YZ=              0.4177

  Exact polarizability:  84.622  -3.525  81.047  -5.078   1.315  63.688
 Approx polarizability: 116.060  -8.931 121.300  -8.793   4.746 100.753

                      1                      2                      3
                      A                      A                      A
 Frequencies --     84.6181               160.5309               222.2295
 Red. masses --      3.3467                 3.7695                 2.9744
 Frc consts  --      0.0141                 0.0572                 0.0865
 IR Inten    --      0.6465                 0.8729                 5.2470

                      4                      5                      6
                      A                      A                      A
 Frequencies --    266.2257               288.7408               302.6235
 Red. masses --      1.5074                 1.3070                 1.8379
 Frc consts  --      0.0629                 0.0642                 0.0992
 IR Inten    --      6.7949               158.3964                32.4283

                      7                      8                      9
                      A                      A                      A
 Frequencies --    355.0124               399.0029               471.1713
 Red. masses --      3.2279                 4.0885                 2.2243
 Frc consts  --      0.2397                 0.3835                 0.2909
 IR Inten    --      9.3482                 9.5269                 6.2511

                     10                     11                     12
                      A                      A                      A
 Frequencies --    555.4081               639.3292               747.0880
 Red. masses --      3.7690                 3.2577                 3.2825
 Frc consts  --      0.6850                 0.7845                 1.0794
 IR Inten    --     13.2338                 1.4022                 5.8634

                     13                     14                     15
                      A                      A                      A
 Frequencies --    788.9672               803.2251               827.7197
 Red. masses --      4.2539                 1.6937                 1.8543
 Frc consts  --      1.5601                 0.6438                 0.7485
 IR Inten    --      9.2807                12.7382                 0.8986

                     16                     17                     18
                      A                      A                      A
 Frequencies --    876.4628               914.6106               934.4359
 Red. masses --      2.1768                 2.3403                 2.4553
 Frc consts  --      0.9852                 1.1535                 1.2632
 IR Inten    --      0.4569                10.6541                 4.1002

                     19                     20                     21
                      A                      A                      A
 Frequencies --    982.1018               997.4034              1005.9673
 Red. masses --      1.3443                 2.6453                 2.3346
 Frc consts  --      0.7639                 1.5505                 1.3920
 IR Inten    --      0.9238                 3.5093                15.1987

                     22                     23                     24
                      A                      A                      A
 Frequencies --   1029.5213              1044.9538              1078.9882
 Red. masses --      2.2225                 2.3953                 2.2313
 Frc consts  --      1.3879                 1.5410                 1.5305
 IR Inten    --     30.8838                40.4154                51.7102

                     25                     26                     27
                      A                      A                      A
 Frequencies --   1113.3597              1138.3297              1148.3517
 Red. masses --      1.8250                 1.5030                 1.6161
 Frc consts  --      1.3328                 1.1475                 1.2557
 IR Inten    --     47.1609                33.5765                 3.6981

                     28                     29                     30
                      A                      A                      A
 Frequencies --   1177.1053              1214.9763              1219.8177
 Red. masses --      1.6045                 1.2241                 1.2160
 Frc consts  --      1.3099                 1.0646                 1.0660
 IR Inten    --      0.2214                 8.2275                38.4312

                     31                     32                     33
                      A                      A                      A
 Frequencies --   1233.7486              1256.9898              1278.8421
 Red. masses --      1.3051                 1.5970                 1.4408
 Frc consts  --      1.1704                 1.4867                 1.3883
 IR Inten    --     35.5271                 7.8079                31.2240

                     34                     35                     36
                      A                      A                      A
 Frequencies --   1304.6649              1326.5757              1343.3949
 Red. masses --      1.3771                 1.3998                 1.5293
 Frc consts  --      1.3810                 1.4514                 1.6261
 IR Inten    --      4.6829                38.4988                29.6735

                     37                     38                     39
                      A                      A                      A
 Frequencies --   1369.3374              1422.9131              1430.7406
 Red. masses --      1.5727                 1.4568                 1.5137
 Frc consts  --      1.7374                 1.7378                 1.8257
 IR Inten    --      3.5538                12.0364                 6.6966

                     40                     41                     42
                      A                      A                      A
 Frequencies --   1478.3568              1674.9064              2955.5157
 Red. masses --      1.1342                 6.5596                 1.0823
 Frc consts  --      1.4605                10.8420                 5.5701
 IR Inten    --      0.9271                 3.6369                49.3495

                     43                     44                     45
                      A                      A                      A
 Frequencies --   2986.4298              3052.2670              3062.5424
 Red. masses --      1.0846                 1.0610                 1.0829
 Frc consts  --      5.6993                 5.8237                 5.9839
 IR Inten    --     53.0695                33.7286                34.6008

                     46                     47                     48
                      A                      A                      A
 Frequencies --   3105.9503              3113.0381              3174.1311
 Red. masses --      1.0879                 1.1077                 1.0864
 Frc consts  --      6.1833                 6.3247                 6.4490
 IR Inten    --     10.2546                29.8261                10.9903

                     49                     50                     51
                      A                      A                      A
 Frequencies --   3207.1830              3809.6752              3811.7394
 Red. masses --      1.1015                 1.0661                 1.0660
 Frc consts  --      6.6757                 9.1164                 9.1258
 IR Inten    --     19.0525                15.0635                19.6306

 - Thermochemistry -
 -------------------
 Temperature   298.150 Kelvin.  Pressure   1.00000 Atm.
 Atom     1 has atomic number  8 and mass  15.99491

 Molecular mass:   126.06808 amu.
 Principal axes and moments of inertia in atomic units:
                           1         2         3
     Eigenvalues --   679.069451255.096181685.88875
           X            0.99983  -0.01750  -0.00551
           Y            0.01753   0.99983   0.00573
           Z            0.00541  -0.00582   0.99997
 This molecule is an asymmetric top.
 Rotational symmetry number  1.
 Warning -- assumption of classical behavior for rotation
           may cause significant error
 Rotational temperatures (Kelvin)      0.12755     0.06901     0.05138
 Rotational constants (GHZ):           2.65767     1.43793     1.07050
 Zero-point vibrational energy     419812.8 (Joules/Mol)
                                  100.33767 (Kcal/Mol)
 Warning -- explicit consideration of  10 degrees of freedom as
           vibrations may cause significant error
 Vibrational temperatures:    121.75   230.97   319.74   383.04   415.43
          (Kelvin)            435.41   510.78   574.08   677.91   799.11
                              919.85  1074.89  1135.15  1155.66  1190.90
                             1261.03  1315.92  1344.44  1413.02  1435.04
                             1447.36  1481.25  1503.45  1552.42  1601.87
                             1637.80  1652.22  1693.59  1748.08  1755.04
                             1775.09  1808.53  1839.97  1877.12  1908.64
                             1932.84  1970.17  2047.25  2058.51  2127.02
                             2409.81  4252.32  4296.80  4391.53  4406.31
                             4468.76  4478.96  4566.86  4614.42  5481.27
                             5484.24

 Zero-point correction=                           0.159898 (Hartree/Particle)
 Thermal correction to Energy=                    0.168102
 Thermal correction to Enthalpy=                  0.169046
 Thermal correction to Gibbs Free Energy=         0.127230
 Sum of electronic and zero-point Energies=           -423.015809
 Sum of electronic and thermal Energies=              -423.007605
 Sum of electronic and thermal Enthalpies=            -423.006661
 Sum of electronic and thermal Free Energies=         -423.048477

                     E (Thermal)             CV                S
                      KCal/Mol        Cal/Mol-Kelvin    Cal/Mol-Kelvin
 Total                  105.486             32.122             88.010
 Electronic               0.000              0.000              0.000
 Translational            0.889              2.981             40.409
 Rotational               0.889              2.981             28.754
 Vibrational            103.708             26.160             18.847
 Vibration     1          0.601              1.960              3.781
 Vibration     2          0.622              1.891              2.544
 Vibration     3          0.648              1.807              1.941
 Vibration     4          0.672              1.735              1.621
 Vibration     5          0.685              1.695              1.481
 Vibration     6          0.694              1.669              1.402
 Vibration     7          0.731              1.565              1.144
 Vibration     8          0.765              1.472              0.966
 Vibration     9          0.828              1.314              0.734
 Vibration    10          0.911              1.128              0.533

 Normal termination of Gaussian 09 at Tue Jan 28 05:13:32 2020.
