 Gaussian 09, Revision D.01,
 Gaussian 09:  ES64L-G09RevD.01 24-Apr-2013

 -----------------------------
 # b3lyp 6-31G(2df,p) opt Freq
 -----------------------------

 -----
 titel
 -----
 Symbolic Z-matrix:
 Charge =  0 Multiplicity = 1

 SCF Done:  E(RB3LYP) =  -423.127142496     A.U. after   14 cycles
 Optimization completed.
    -- Stationary point found.
 Normal termination of Gaussian 09 at Mon Jan 27 14:11:44 2020.

 ----------------------------------------------------------------------
 #N Geom=AllCheck Guess=TCheck SCRF=Check GenChk RB3LYP/6-31G(2df,p) Fr
 eq
 ----------------------------------------------------------------------

 Structure from the checkpoint file:  "/scratch/puck/g09_48752bd3-2d2e-4a34-916f-367eff11ef81/Gau-64179.chk"
 -----
 titel
 -----
 Charge =  0 Multiplicity = 1

                         Standard orientation:
 ---------------------------------------------------------------------
 Center     Atomic      Atomic             Coordinates (Angstroms)
 Number     Number       Type             X           Y           Z
 ---------------------------------------------------------------------
      1          6           0       -1.738363    1.665776    0.155918
      2          6           0       -0.995078    0.480335   -0.494052
      3          6           0       -1.752718   -0.765854   -0.350540
      4          6           0       -2.343214   -1.797270   -0.162480
      5          6           0        0.397006    0.288784    0.104156
      6          8           0        0.398178   -0.134417    1.447732
      7          6           0        1.524087    1.224293   -0.244393
      8          6           0        1.560390   -0.223851   -0.707183
      9          8           0        2.433498   -1.126666   -0.110949
     10          1           0       -2.740854    1.774203   -0.264789
     11          1           0       -1.826451    1.509783    1.233514
     12          1           0       -1.182895    2.592325   -0.013758
     13          1           0       -0.867667    0.688116   -1.564346
     14          1           0       -2.880676   -2.704675   -0.035151
     15          1           0       -0.193022   -0.900035    1.494224
     16          1           0        1.341203    2.008911   -0.971678
     17          1           0        2.195163    1.493113    0.564379
     18          1           0        1.421643   -0.432939   -1.763827
     19          1           0        2.167481   -1.173419    0.818619
 ---------------------------------------------------------------------

 SCF Done:  E(RB3LYP) =  -423.127142496     A.U. after    1 cycles

 The electronic state is 1-A.
 Alpha  occ. eigenvalues --  -19.15909 -19.13349 -10.24597 -10.23226 -10.22517
 Alpha  occ. eigenvalues --  -10.19341 -10.18583 -10.18524 -10.18311  -1.05095
 Alpha  occ. eigenvalues --   -1.01366  -0.84841  -0.80186  -0.73485  -0.65890
 Alpha  occ. eigenvalues --   -0.61092  -0.58794  -0.54408  -0.52857  -0.50779
 Alpha  occ. eigenvalues --   -0.48272  -0.45215  -0.43136  -0.40339  -0.39948
 Alpha  occ. eigenvalues --   -0.38707  -0.38015  -0.36430  -0.35454  -0.32199
 Alpha  occ. eigenvalues --   -0.28246  -0.27772  -0.26932  -0.23217
 Alpha virt. eigenvalues --    0.03646   0.04407   0.07153   0.10164   0.11544
 Alpha virt. eigenvalues --    0.12268   0.12702   0.13574   0.15191   0.15463
 Alpha virt. eigenvalues --    0.16910   0.18434   0.18915   0.20922   0.22730

 Mulliken charges:
               1
     1  C   -0.387572
     2  C   -0.224300
     3  C    0.288381
     4  C   -0.446747
     5  C    0.379536
     6  O   -0.479809
     7  C   -0.385320
     8  C    0.082474
     9  O   -0.437259
    10  H    0.123594
    11  H    0.136949
    12  H    0.122681
    13  H    0.109638
    14  H    0.203060
    15  H    0.290381
    16  H    0.111989
    17  H    0.125954
    18  H    0.102532
    19  H    0.283838
 Sum of Mulliken charges =   0.00000

 Dipole moment (field-independent basis, Debye):
    X=             -1.9496    Y=              0.4025    Z=             -0.1165  Tot=              1.9941
 Quadrupole moment (field-independent basis, Debye-Ang):
   XX=            -57.6150   YY=            -49.7595   ZZ=            -52.5994
   XY=              4.6202   XZ=              0.8386   YZ=             -3.9887

  Exact polarizability:  83.057   9.779  85.939  -1.321  -3.367  62.696
 Approx polarizability: 110.417  18.555 131.773  -3.625  -8.123  97.985

                      1                      2                      3
                      A                      A                      A
 Frequencies --     71.7220               110.6543               172.6919
 Red. masses --      4.3477                 4.2899                 3.7588
 Frc consts  --      0.0132                 0.0309                 0.0660
 IR Inten    --      0.6907                 0.2564                 2.4954

                      4                      5                      6
                      A                      A                      A
 Frequencies --    194.0987               214.7214               261.9723
 Red. masses --      3.1664                 1.0975                 5.1721
 Frc consts  --      0.0703                 0.0298                 0.2091
 IR Inten    --      0.8341                 0.2488                16.5759

                      7                      8                      9
                      A                      A                      A
 Frequencies --    282.9418               327.5422               347.1836
 Red. masses --      2.9334                 1.8135                 2.0862
 Frc consts  --      0.1384                 0.1146                 0.1482
 IR Inten    --      4.7591                52.8252                38.7785

                     10                     11                     12
                      A                      A                      A
 Frequencies --    394.1817               458.8799               531.1238
 Red. masses --      2.9640                 2.1488                 3.0099
 Frc consts  --      0.2713                 0.2666                 0.5003
 IR Inten    --     25.0599                 0.1795                 5.9749

                     13                     14                     15
                      A                      A                      A
 Frequencies --    547.3923               552.6840               635.3810
 Red. masses --      2.1081                 1.6814                 1.2419
 Frc consts  --      0.3722                 0.3026                 0.2954
 IR Inten    --     45.8401                19.5993                52.3844

                     16                     17                     18
                      A                      A                      A
 Frequencies --    648.6937               664.3761               747.3517
 Red. masses --      2.4683                 1.4209                 2.9886
 Frc consts  --      0.6120                 0.3695                 0.9835
 IR Inten    --      8.4666                38.0411                 8.6887

                     19                     20                     21
                      A                      A                      A
 Frequencies --    799.5707               864.9448               907.7748
 Red. masses --      2.0192                 2.4381                 1.8038
 Frc consts  --      0.7606                 1.0747                 0.8758
 IR Inten    --      6.3300                15.0872                 2.7411

                     22                     23                     24
                      A                      A                      A
 Frequencies --    935.2313              1000.4774              1008.7010
 Red. masses --      3.0647                 2.2428                 1.5516
 Frc consts  --      1.5793                 1.3227                 0.9302
 IR Inten    --     29.7731                14.7896                 0.7216

                     25                     26                     27
                      A                      A                      A
 Frequencies --   1042.0449              1075.5639              1096.7822
 Red. masses --      1.6174                 1.7380                 1.7189
 Frc consts  --      1.0348                 1.1846                 1.2183
 IR Inten    --     15.5684                14.1482                 7.4095

                     28                     29                     30
                      A                      A                      A
 Frequencies --   1114.4952              1142.4421              1222.7959
 Red. masses --      1.6625                 2.5582                 1.5308
 Frc consts  --      1.2167                 1.9672                 1.3486
 IR Inten    --     17.2120                71.3573                40.2762

                     31                     32                     33
                      A                      A                      A
 Frequencies --   1265.0067              1309.7517              1320.1324
 Red. masses --      3.4950                 1.3707                 1.4362
 Frc consts  --      3.2953                 1.3853                 1.4746
 IR Inten    --     18.5109                48.7833                21.9868

                     34                     35                     36
                      A                      A                      A
 Frequencies --   1333.5517              1401.4480              1409.5176
 Red. masses --      1.6287                 1.2415                 1.3442
 Frc consts  --      1.7066                 1.4367                 1.5735
 IR Inten    --      7.1015                 5.6923                86.2558

                     37                     38                     39
                      A                      A                      A
 Frequencies --   1430.8500              1487.0372              1491.9924
 Red. masses --      1.1486                 1.3103                 1.3041
 Frc consts  --      1.3855                 1.7071                 1.7104
 IR Inten    --     25.7690                23.8735                11.5040

                     40                     41                     42
                      A                      A                      A
 Frequencies --   1500.2826              2226.2207              3025.3296
 Red. masses --      1.1319                 5.9319                 1.0823
 Frc consts  --      1.5011                17.3213                 5.8366
 IR Inten    --      5.8843                 0.9244                 9.9832

                     43                     44                     45
                      A                      A                      A
 Frequencies --   3050.0290              3124.9060              3126.4596
 Red. masses --      1.0339                 1.0990                 1.0578
 Frc consts  --      5.6670                 6.3231                 6.0921
 IR Inten    --     18.8995                14.8875                11.0464

                     46                     47                     48
                      A                      A                      A
 Frequencies --   3135.3284              3154.3141              3221.0796
 Red. masses --      1.1027                 1.0902                 1.1165
 Frc consts  --      6.3865                 6.3908                 6.8249
 IR Inten    --     13.3544                16.7460                 4.6264

                     49                     50                     51
                      A                      A                      A
 Frequencies --   3501.3224              3724.8054              3736.9945
 Red. masses --      1.1615                 1.0652                 1.0646
 Frc consts  --      8.3893                 8.7078                 8.7595
 IR Inten    --     71.0745                56.8572                23.5344

 - Thermochemistry -
 -------------------
 Temperature   298.150 Kelvin.  Pressure   1.00000 Atm.
 Atom     1 has atomic number  6 and mass  12.00000

 Molecular mass:   126.06808 amu.
 Principal axes and moments of inertia in atomic units:
                           1         2         3
     Eigenvalues --   741.504911424.717211759.65378
           X            0.99999  -0.00334  -0.00387
           Y            0.00325   0.99970  -0.02426
           Z            0.00395   0.02425   0.99970
 This molecule is an asymmetric top.
 Rotational symmetry number  1.
 Warning -- assumption of classical behavior for rotation
           may cause significant error
 Rotational temperatures (Kelvin)      0.11681     0.06079     0.04922
 Rotational constants (GHZ):           2.43389     1.26674     1.02562
 Zero-point vibrational energy     408828.4 (Joules/Mol)
                                   97.71234 (Kcal/Mol)
 Warning -- explicit consideration of  14 degrees of freedom as
           vibrations may cause significant error
 Vibrational temperatures:    103.19   159.21   248.46   279.26   308.94
          (Kelvin)            376.92   407.09   471.26   499.52   567.14
                              660.22   764.17   787.57   795.19   914.17
                              933.32   955.89  1075.27  1150.40  1244.46
                             1306.08  1345.59  1439.46  1451.29  1499.27
                             1547.49  1578.02  1603.51  1643.72  1759.33
                             1820.06  1884.44  1899.37  1918.68  2016.37
                             2027.98  2058.67  2139.51  2146.64  2158.57
                             3203.03  4352.77  4388.31  4496.04  4498.27
                             4511.03  4538.35  4634.41  5037.62  5359.16
                             5376.69

 Zero-point correction=                           0.155715 (Hartree/Particle)
 Thermal correction to Energy=                    0.165616
 Thermal correction to Enthalpy=                  0.166560
 Thermal correction to Gibbs Free Energy=         0.121349
 Sum of electronic and zero-point Energies=           -422.971428
 Sum of electronic and thermal Energies=              -422.961526
 Sum of electronic and thermal Enthalpies=            -422.960582
 Sum of electronic and thermal Free Energies=         -423.005793

                     E (Thermal)             CV                S
                      KCal/Mol        Cal/Mol-Kelvin    Cal/Mol-Kelvin
 Total                  103.926             37.504             95.155
 Electronic               0.000              0.000              0.000
 Translational            0.889              2.981             40.409
 Rotational               0.889              2.981             29.010
 Vibrational            102.148             31.543             25.737
 Vibration     1          0.598              1.967              4.106
 Vibration     2          0.606              1.941              3.257
 Vibration     3          0.626              1.876              2.406
 Vibration     4          0.635              1.848              2.188
 Vibration     5          0.645              1.819              2.003
 Vibration     6          0.669              1.742              1.649
 Vibration     7          0.682              1.705              1.516
 Vibration     8          0.711              1.620              1.272
 Vibration     9          0.725              1.581              1.179
 Vibration    10          0.761              1.483              0.984
 Vibration    11          0.817              1.341              0.769
 Vibration    12          0.886              1.181              0.585
 Vibration    13          0.903              1.145              0.550
 Vibration    14          0.908              1.134              0.539

 Optimization completed.
    -- Stationary point found.
 Normal termination of Gaussian 09 at Mon Jan 27 15:04:27 2020.
