 Gaussian 09, Revision D.01,
 Gaussian 09:  ES64L-G09RevD.01 24-Apr-2013

 -----------------------------
 # b3lyp 6-31G(2df,p) opt Freq
 -----------------------------

 -----
 titel
 -----
 Symbolic Z-matrix:
 Charge =  0 Multiplicity = 1

 SCF Done:  E(RB3LYP) =  -423.128626306     A.U. after   13 cycles
 Optimization completed.
    -- Stationary point found.
 Normal termination of Gaussian 09 at Tue Jan 28 03:15:35 2020.

 ----------------------------------------------------------------------
 #N Geom=AllCheck Guess=TCheck SCRF=Check GenChk RB3LYP/6-31G(2df,p) Fr
 eq
 ----------------------------------------------------------------------

 Structure from the checkpoint file:  "/scratch/puck/g09_af13d550-af90-4d83-b3b5-bb0ed71c0938/Gau-46354.chk"
 -----
 titel
 -----
 Charge =  0 Multiplicity = 1

                         Standard orientation:
 ---------------------------------------------------------------------
 Center     Atomic      Atomic             Coordinates (Angstroms)
 Number     Number       Type             X           Y           Z
 ---------------------------------------------------------------------
      1          8           0       -0.894860    1.957258    0.501706
      2          6           0       -0.720463    0.854004   -0.356493
      3          6           0       -1.950898    0.011410   -0.842689
      4          6           0       -1.227921   -1.255722   -0.375367
      5          6           0       -0.984833   -1.172403    1.100641
      6          6           0       -0.057831   -0.419026    0.178661
      7          6           0        1.404181   -0.660879    0.156756
      8          6           0        2.360515    0.434341    0.378679
      9          8           0        2.131954   -0.084236   -0.934816
     10          1           0       -1.298483    1.642344    1.317623
     11          1           0       -0.152690    1.231114   -1.209386
     12          1           0       -2.896143    0.224208   -0.331209
     13          1           0       -2.111707    0.078884   -1.920146
     14          1           0       -1.175232   -2.192174   -0.916234
     15          1           0       -1.690663   -0.652779    1.747912
     16          1           0       -0.545091   -2.051168    1.563146
     17          1           0        1.719018   -1.674091    0.413683
     18          1           0        1.976031    1.437198    0.557279
     19          1           0        3.341712    0.221935    0.801083
 ---------------------------------------------------------------------

 SCF Done:  E(RB3LYP) =  -423.128626306     A.U. after    1 cycles

 The electronic state is 1-A.
 Alpha  occ. eigenvalues --  -19.14797 -19.13828 -10.23959 -10.23301 -10.22981
 Alpha  occ. eigenvalues --  -10.20013 -10.19980 -10.19890 -10.18499  -1.06707
 Alpha  occ. eigenvalues --   -1.02102  -0.89833  -0.73267  -0.69680  -0.65272
 Alpha  occ. eigenvalues --   -0.62607  -0.58747  -0.55700  -0.52181  -0.49754
 Alpha  occ. eigenvalues --   -0.47723  -0.45283  -0.42485  -0.41749  -0.39506
 Alpha  occ. eigenvalues --   -0.38596  -0.37887  -0.37433  -0.33081  -0.32484
 Alpha  occ. eigenvalues --   -0.29076  -0.26801  -0.26163  -0.25368
 Alpha virt. eigenvalues --    0.06533   0.08747   0.09918   0.11035   0.11634
 Alpha virt. eigenvalues --    0.12939   0.13932   0.14068   0.14591   0.16371
 Alpha virt. eigenvalues --    0.17633   0.17925   0.19528   0.21121   0.21949

 Mulliken charges:
               1
     1  O   -0.437089
     2  C    0.058438
     3  C   -0.278502
     4  C   -0.099262
     5  C   -0.355571
     6  C    0.358707
     7  C   -0.057433
     8  C   -0.189533
     9  O   -0.238680
    10  H    0.278451
    11  H    0.115212
    12  H    0.094316
    13  H    0.111281
    14  H    0.095926
    15  H    0.095876
    16  H    0.118267
    17  H    0.086103
    18  H    0.130469
    19  H    0.113022
 Sum of Mulliken charges =   0.00000

 Dipole moment (field-independent basis, Debye):
    X=             -0.8627    Y=             -1.4809    Z=              1.8732  Tot=              2.5389
 Quadrupole moment (field-independent basis, Debye-Ang):
   XX=            -52.7256   YY=            -55.2437   ZZ=            -51.9229
   XY=              0.4412   XZ=              2.8226   YZ=              0.1836

  Exact polarizability:  85.142   3.860  73.635   3.072  -0.723  67.614
 Approx polarizability: 113.405   7.605 110.050   0.324   0.404 107.872

                      1                      2                      3
                      A                      A                      A
 Frequencies --     81.2163               127.6719               171.4354
 Red. masses --      4.0395                 3.3265                 3.5499
 Frc consts  --      0.0157                 0.0319                 0.0615
 IR Inten    --      1.7214                 1.9061                 2.3077

                      4                      5                      6
                      A                      A                      A
 Frequencies --    186.4840               284.3052               359.7289
 Red. masses --      3.2762                 1.3279                 2.4473
 Frc consts  --      0.0671                 0.0632                 0.1866
 IR Inten    --      0.3370                49.9915                26.5041

                      7                      8                      9
                      A                      A                      A
 Frequencies --    390.9327               422.1088               452.7981
 Red. masses --      3.3244                 2.1452                 3.0057
 Frc consts  --      0.2993                 0.2252                 0.3631
 IR Inten    --     13.2211                 7.8130                 5.2279

                     10                     11                     12
                      A                      A                      A
 Frequencies --    574.1936               651.9860               702.3461
 Red. masses --      3.1433                 3.7051                 2.6090
 Frc consts  --      0.6106                 0.9280                 0.7583
 IR Inten    --      5.0042                 1.6789                17.6732

                     13                     14                     15
                      A                      A                      A
 Frequencies --    822.3146               841.0724               846.5143
 Red. masses --      2.6285                 2.6515                 2.6087
 Frc consts  --      1.0472                 1.1051                 1.1014
 IR Inten    --      1.7197                 0.4975                20.1126

                     16                     17                     18
                      A                      A                      A
 Frequencies --    858.7379               914.7956               941.0453
 Red. masses --      2.6948                 2.7373                 1.6980
 Frc consts  --      1.1709                 1.3496                 0.8859
 IR Inten    --     17.3519                18.9583                12.6376

                     19                     20                     21
                      A                      A                      A
 Frequencies --    988.9855              1010.7091              1021.9361
 Red. masses --      1.9485                 1.5631                 1.3524
 Frc consts  --      1.1229                 0.9408                 0.8322
 IR Inten    --     16.4419                11.0042                 0.0776

                     22                     23                     24
                      A                      A                      A
 Frequencies --   1030.9410              1063.2609              1090.0788
 Red. masses --      1.7495                 1.4628                 1.6047
 Frc consts  --      1.0956                 0.9743                 1.1235
 IR Inten    --      4.1828                 2.8610                12.3033

                     25                     26                     27
                      A                      A                      A
 Frequencies --   1099.9297              1111.4588              1154.0886
 Red. masses --      1.2453                 2.5594                 1.4856
 Frc consts  --      0.8877                 1.8628                 1.1658
 IR Inten    --      5.4914                83.2433                 9.5739

                     28                     29                     30
                      A                      A                      A
 Frequencies --   1166.2973              1171.7189              1203.7000
 Red. masses --      1.6008                 1.3553                 1.6175
 Frc consts  --      1.2829                 1.0963                 1.3808
 IR Inten    --     29.0231                 8.6345                 6.1287

                     31                     32                     33
                      A                      A                      A
 Frequencies --   1238.8020              1250.1747              1277.9811
 Red. masses --      1.5897                 1.7851                 1.6844
 Frc consts  --      1.4374                 1.6438                 1.6209
 IR Inten    --      9.3817                 3.7930                 3.3457

                     34                     35                     36
                      A                      A                      A
 Frequencies --   1304.2111              1319.7349              1362.1263
 Red. masses --      1.5093                 2.4269                 1.7994
 Frc consts  --      1.5126                 2.4904                 1.9671
 IR Inten    --     11.9131                 5.3577                 6.2928

                     37                     38                     39
                      A                      A                      A
 Frequencies --   1439.7588              1452.9249              1481.2169
 Red. masses --      1.2438                 1.8345                 1.1328
 Frc consts  --      1.5191                 2.2817                 1.4643
 IR Inten    --     65.0729                17.9739                 3.0078

                     40                     41                     42
                      A                      A                      A
 Frequencies --   1505.1942              1528.1701              3043.6701
 Red. masses --      1.3132                 1.4037                 1.0645
 Frc consts  --      1.7529                 1.9313                 5.8100
 IR Inten    --      1.9944                 5.1013                45.0350

                     43                     44                     45
                      A                      A                      A
 Frequencies --   3083.2185              3087.9059              3091.2702
 Red. masses --      1.0529                 1.0630                 1.0823
 Frc consts  --      5.8970                 5.9717                 6.0933
 IR Inten    --     25.9837                22.9811                29.9751

                     46                     47                     48
                      A                      A                      A
 Frequencies --   3098.9966              3117.6725              3176.1818
 Red. masses --      1.0894                 1.0984                 1.1200
 Frc consts  --      6.1644                 6.2902                 6.6570
 IR Inten    --      2.6901                25.2845                20.4630

                     49                     50                     51
                      A                      A                      A
 Frequencies --   3182.4645              3196.5018              3805.3785
 Red. masses --      1.1063                 1.0952                 1.0656
 Frc consts  --      6.6014                 6.5931                 9.0920
 IR Inten    --      6.8047                18.5380                10.3257

 - Thermochemistry -
 -------------------
 Temperature   298.150 Kelvin.  Pressure   1.00000 Atm.
 Atom     1 has atomic number  8 and mass  15.99491

 Molecular mass:   126.06808 amu.
 Principal axes and moments of inertia in atomic units:
                           1         2         3
     Eigenvalues --   696.298511272.271561532.41353
           X            0.99964   0.01541   0.02178
           Y           -0.01494   0.99966  -0.02141
           Z           -0.02210   0.02108   0.99953
 This molecule is an asymmetric top.
 Rotational symmetry number  1.
 Warning -- assumption of classical behavior for rotation
           may cause significant error
 Rotational temperatures (Kelvin)      0.12439     0.06808     0.05652
 Rotational constants (GHZ):           2.59191     1.41852     1.17771
 Zero-point vibrational energy     417415.0 (Joules/Mol)
                                   99.76459 (Kcal/Mol)
 Warning -- explicit consideration of  10 degrees of freedom as
           vibrations may cause significant error
 Vibrational temperatures:    116.85   183.69   246.66   268.31   409.05
          (Kelvin)            517.57   562.46   607.32   651.47   826.14
                              938.06  1010.52  1183.13  1210.11  1217.94
                             1235.53  1316.19  1353.95  1422.93  1454.18
                             1470.34  1483.29  1529.79  1568.38  1582.55
                             1599.14  1660.47  1678.04  1685.84  1731.85
                             1782.36  1798.72  1838.73  1876.47  1898.80
                             1959.79  2071.49  2090.43  2131.14  2165.64
                             2198.69  4379.16  4436.06  4442.80  4447.64
                             4458.76  4485.63  4569.81  4578.85  4599.05
                             5475.08

 Zero-point correction=                           0.158985 (Hartree/Particle)
 Thermal correction to Energy=                    0.167321
 Thermal correction to Enthalpy=                  0.168265
 Thermal correction to Gibbs Free Energy=         0.125937
 Sum of electronic and zero-point Energies=           -422.969641
 Sum of electronic and thermal Energies=              -422.961305
 Sum of electronic and thermal Enthalpies=            -422.960361
 Sum of electronic and thermal Free Energies=         -423.002689

                     E (Thermal)             CV                S
                      KCal/Mol        Cal/Mol-Kelvin    Cal/Mol-Kelvin
 Total                  104.996             32.027             89.087
 Electronic               0.000              0.000              0.000
 Translational            0.889              2.981             40.409
 Rotational               0.889              2.981             28.697
 Vibrational            103.218             26.065             19.981
 Vibration     1          0.600              1.962              3.861
 Vibration     2          0.611              1.926              2.981
 Vibration     3          0.626              1.878              2.420
 Vibration     4          0.632              1.858              2.263
 Vibration     5          0.683              1.703              1.508
 Vibration     6          0.734              1.555              1.123
 Vibration     7          0.759              1.490              0.997
 Vibration     8          0.784              1.422              0.885
 Vibration     9          0.811              1.355              0.787
 Vibration    10          0.930              1.087              0.496

 Normal termination of Gaussian 09 at Tue Jan 28 05:13:09 2020.
