 Gaussian 09, Revision D.01,
 Gaussian 09:  ES64L-G09RevD.01 24-Apr-2013

 -----------------------------
 # b3lyp 6-31G(2df,p) opt Freq
 -----------------------------

 -----
 titel
 -----
 Symbolic Z-matrix:
 Charge =  0 Multiplicity = 1

 SCF Done:  E(RB3LYP) =  -423.183559016     A.U. after   14 cycles
 Optimization completed.
    -- Stationary point found.
 Normal termination of Gaussian 09 at Mon Jan 27 17:08:42 2020.

 ----------------------------------------------------------------------
 #N Geom=AllCheck Guess=TCheck SCRF=Check GenChk RB3LYP/6-31G(2df,p) Fr
 eq
 ----------------------------------------------------------------------

 Structure from the checkpoint file:  "/scratch/puck/g09_ea619dcb-e76d-4beb-900e-3d70f774ae2b/Gau-65982.chk"
 -----
 titel
 -----
 Charge =  0 Multiplicity = 1

                         Standard orientation:
 ---------------------------------------------------------------------
 Center     Atomic      Atomic             Coordinates (Angstroms)
 Number     Number       Type             X           Y           Z
 ---------------------------------------------------------------------
      1          6           0       -2.608674   -0.912819   -0.209271
      2          6           0       -1.313540   -0.195858    0.042647
      3          6           0       -1.200224    1.215733    0.672860
      4          6           0        0.063278    1.178156   -0.205528
      5          8           0       -0.661266    0.351952   -1.159896
      6          6           0        0.973313    0.136215    0.513506
      7          6           0       -0.132189   -0.961404    0.688449
      8          6           0        2.121239   -0.313465   -0.353323
      9          8           0        3.279621   -0.301173   -0.019497
     10          1           0       -2.443071   -1.795535   -0.835519
     11          1           0       -3.048899   -1.244570    0.736697
     12          1           0       -3.324221   -0.259738   -0.715699
     13          1           0       -1.950325    1.898569    0.271853
     14          1           0       -1.100743    1.313794    1.756947
     15          1           0        0.527066    2.063958   -0.638487
     16          1           0        1.373634    0.507484    1.459495
     17          1           0        0.088485   -1.875767    0.130111
     18          1           0       -0.299514   -1.225882    1.735208
     19          1           0        1.811532   -0.667894   -1.361512
 ---------------------------------------------------------------------

 SCF Done:  E(RB3LYP) =  -423.183559016     A.U. after    1 cycles

 The electronic state is 1-A.
 Alpha  occ. eigenvalues --  -19.14244 -19.13358 -10.26356 -10.25320 -10.25072
 Alpha  occ. eigenvalues --  -10.19979 -10.19855 -10.19683 -10.18952  -1.05904
 Alpha  occ. eigenvalues --   -1.03956  -0.81347  -0.76996  -0.73204  -0.68291
 Alpha  occ. eigenvalues --   -0.60905  -0.56696  -0.55168  -0.50390  -0.48371
 Alpha  occ. eigenvalues --   -0.46721  -0.45506  -0.44243  -0.41321  -0.40019
 Alpha  occ. eigenvalues --   -0.39412  -0.39031  -0.36872  -0.35012  -0.34448
 Alpha  occ. eigenvalues --   -0.33001  -0.32178  -0.26356  -0.24117
 Alpha virt. eigenvalues --   -0.02023   0.07742   0.09644   0.10683   0.11703
 Alpha virt. eigenvalues --    0.13311   0.14623   0.14792   0.15166   0.15758
 Alpha virt. eigenvalues --    0.15871   0.17988   0.18385   0.19389   0.19810

 Mulliken charges:
               1
     1  C   -0.496042
     2  C    0.419067
     3  C   -0.271887
     4  C    0.050199
     5  O   -0.325821
     6  C   -0.071510
     7  C   -0.288252
     8  C    0.145628
     9  O   -0.258697
    10  H    0.132651
    11  H    0.126122
    12  H    0.131420
    13  H    0.113127
    14  H    0.098532
    15  H    0.091560
    16  H    0.090242
    17  H    0.113460
    18  H    0.110785
    19  H    0.089414
 Sum of Mulliken charges =   0.00000

 Dipole moment (field-independent basis, Debye):
    X=             -3.2524    Y=              0.2334    Z=              1.3246  Tot=              3.5196
 Quadrupole moment (field-independent basis, Debye-Ang):
   XX=            -63.6891   YY=            -50.1129   ZZ=            -54.0885
   XY=              1.9228   XZ=             -2.1512   YZ=              0.4000

  Exact polarizability:  92.209   0.974  69.838   0.201   1.287  66.308
 Approx polarizability: 126.209   1.510 102.103   3.340   1.273 107.055

                      1                      2                      3
                      A                      A                      A
 Frequencies --     77.7575               120.6929               192.5415
 Red. masses --      4.7260                 3.9510                 1.0614
 Frc consts  --      0.0168                 0.0339                 0.0232
 IR Inten    --      4.9492                 1.8365                 0.3835

                      4                      5                      6
                      A                      A                      A
 Frequencies --    248.4820               300.0200               337.4909
 Red. masses --      2.3789                 2.5333                 2.3665
 Frc consts  --      0.0865                 0.1344                 0.1588
 IR Inten    --      3.4693                 2.9354                 2.6904

                      7                      8                      9
                      A                      A                      A
 Frequencies --    400.9098               403.4159               466.8659
 Red. masses --      4.6702                 2.0748                 2.6354
 Frc consts  --      0.4423                 0.1989                 0.3384
 IR Inten    --      0.1941                 2.5811                11.1739

                     10                     11                     12
                      A                      A                      A
 Frequencies --    571.7939               631.0076               740.9807
 Red. masses --      3.5327                 3.4276                 3.9730
 Frc consts  --      0.6805                 0.8041                 1.2852
 IR Inten    --      5.0675                 1.4760                13.8315

                     13                     14                     15
                      A                      A                      A
 Frequencies --    806.6997               826.3723               873.3204
 Red. masses --      3.0334                 3.0922                 2.3898
 Frc consts  --      1.1631                 1.2441                 1.0739
 IR Inten    --     17.2561                 4.5623                 6.1774

                     16                     17                     18
                      A                      A                      A
 Frequencies --    884.0590               892.4459               928.1859
 Red. masses --      2.6338                 2.1453                 2.1830
 Frc consts  --      1.2128                 1.0067                 1.1081
 IR Inten    --     18.1404                16.4838                 8.9642

                     19                     20                     21
                      A                      A                      A
 Frequencies --    969.2482               985.4149              1019.0042
 Red. masses --      2.5014                 1.9871                 1.6654
 Frc consts  --      1.3845                 1.1369                 1.0189
 IR Inten    --      6.5615                19.4627                 8.4698

                     22                     23                     24
                      A                      A                      A
 Frequencies --   1035.5767              1064.9569              1099.0977
 Red. masses --      1.7670                 1.5070                 1.6740
 Frc consts  --      1.1165                 1.0070                 1.1915
 IR Inten    --     21.7364                 7.2096                 3.4900

                     25                     26                     27
                      A                      A                      A
 Frequencies --   1144.7158              1185.1577              1202.2638
 Red. masses --      2.1353                 1.5020                 1.5114
 Frc consts  --      1.6485                 1.2430                 1.2871
 IR Inten    --     16.6268                 6.7130                 8.4744

                     28                     29                     30
                      A                      A                      A
 Frequencies --   1215.7719              1232.6672              1253.2316
 Red. masses --      1.7638                 1.4971                 1.6075
 Frc consts  --      1.5360                 1.3403                 1.4875
 IR Inten    --     14.6184                 7.8491                14.3989

                     31                     32                     33
                      A                      A                      A
 Frequencies --   1264.3804              1297.5611              1315.0905
 Red. masses --      1.6663                 1.4682                 1.6940
 Frc consts  --      1.5695                 1.4564                 1.7262
 IR Inten    --      3.1892                 4.4256                11.7501

                     34                     35                     36
                      A                      A                      A
 Frequencies --   1353.6482              1416.5255              1421.3063
 Red. masses --      1.9769                 1.4415                 1.2634
 Frc consts  --      2.1342                 1.7042                 1.5037
 IR Inten    --      9.5917                14.0862                 4.3386

                     37                     38                     39
                      A                      A                      A
 Frequencies --   1476.6709              1480.8328              1492.6846
 Red. masses --      1.1022                 1.0669                 1.0601
 Frc consts  --      1.4160                 1.3785                 1.3917
 IR Inten    --      0.4038                 5.9587                 5.1787

                     40                     41                     42
                      A                      A                      A
 Frequencies --   1496.4043              1825.6990              2892.1301
 Red. masses --      1.1404                10.0168                 1.0826
 Frc consts  --      1.5045                19.6716                 5.3355
 IR Inten    --      0.4377               216.4925                64.4510

                     43                     44                     45
                      A                      A                      A
 Frequencies --   3039.2485              3060.8220              3066.1857
 Red. masses --      1.0357                 1.0592                 1.0591
 Frc consts  --      5.6366                 5.8464                 5.8667
 IR Inten    --     13.7321                28.1000                21.7607

                     46                     47                     48
                      A                      A                      A
 Frequencies --   3091.5674              3107.7801              3114.6364
 Red. masses --      1.0875                 1.1009                 1.1038
 Frc consts  --      6.1241                 6.2649                 6.3091
 IR Inten    --      8.5766                 5.6144                25.9302

                     49                     50                     51
                      A                      A                      A
 Frequencies --   3120.4215              3129.5218              3141.9550
 Red. masses --      1.1017                 1.0923                 1.1073
 Frc consts  --      6.3203                 6.3031                 6.4405
 IR Inten    --     12.6259                30.6677                24.3194

 - Thermochemistry -
 -------------------
 Temperature   298.150 Kelvin.  Pressure   1.00000 Atm.
 Atom     1 has atomic number  6 and mass  12.00000

 Molecular mass:   126.06808 amu.
 Principal axes and moments of inertia in atomic units:
                           1         2         3
     Eigenvalues --   470.456331612.924301721.56321
           X            0.99988   0.01498  -0.00432
           Y           -0.01475   0.99869   0.04908
           Z            0.00505  -0.04901   0.99879
 This molecule is an asymmetric top.
 Rotational symmetry number  1.
 Warning -- assumption of classical behavior for rotation
           may cause significant error
 Rotational temperatures (Kelvin)      0.18411     0.05370     0.05031
 Rotational constants (GHZ):           3.83615     1.11892     1.04832
 Zero-point vibrational energy     416989.6 (Joules/Mol)
                                   99.66291 (Kcal/Mol)
 Warning -- explicit consideration of  10 degrees of freedom as
           vibrations may cause significant error
 Vibrational temperatures:    111.88   173.65   277.02   357.51   431.66
          (Kelvin)            485.57   576.82   580.42   671.72   822.68
                              907.88  1066.10  1160.66  1188.96  1256.51
                             1271.96  1284.03  1335.45  1394.53  1417.79
                             1466.12  1489.96  1532.23  1581.35  1646.99
                             1705.18  1729.79  1749.22  1773.53  1803.12
                             1819.16  1866.90  1892.12  1947.60  2038.06
                             2044.94  2124.60  2130.59  2147.64  2152.99
                             2626.77  4161.12  4372.80  4403.83  4411.55
                             4448.07  4471.40  4481.26  4489.58  4502.68
                             4520.57

 Zero-point correction=                           0.158823 (Hartree/Particle)
 Thermal correction to Energy=                    0.167015
 Thermal correction to Enthalpy=                  0.167960
 Thermal correction to Gibbs Free Energy=         0.125952
 Sum of electronic and zero-point Energies=           -423.024736
 Sum of electronic and thermal Energies=              -423.016544
 Sum of electronic and thermal Enthalpies=            -423.015599
 Sum of electronic and thermal Free Energies=         -423.057607

                     E (Thermal)             CV                S
                      KCal/Mol        Cal/Mol-Kelvin    Cal/Mol-Kelvin
 Total                  104.804             31.520             88.412
 Electronic               0.000              0.000              0.000
 Translational            0.889              2.981             40.409
 Rotational               0.889              2.981             28.659
 Vibrational            103.026             25.559             19.345
 Vibration     1          0.599              1.964              3.947
 Vibration     2          0.609              1.932              3.089
 Vibration     3          0.635              1.850              2.203
 Vibration     4          0.662              1.765              1.741
 Vibration     5          0.693              1.674              1.417
 Vibration     6          0.718              1.601              1.224
 Vibration     7          0.767              1.468              0.959
 Vibration     8          0.769              1.463              0.950
 Vibration     9          0.824              1.324              0.746
 Vibration    10          0.928              1.092              0.501

 Normal termination of Gaussian 09 at Mon Jan 27 17:54:53 2020.
