 Gaussian 09, Revision D.01,
 Gaussian 09:  ES64L-G09RevD.01 24-Apr-2013

 -----------------------------
 # b3lyp 6-31G(2df,p) opt Freq
 -----------------------------

 -----
 titel
 -----
 Symbolic Z-matrix:
 Charge =  0 Multiplicity = 1

 SCF Done:  E(RB3LYP) =  -423.127280214     A.U. after   13 cycles
 Optimization completed.
    -- Stationary point found.
 Normal termination of Gaussian 09 at Tue Jan 28 03:24:37 2020.

 ----------------------------------------------------------------------
 #N Geom=AllCheck Guess=TCheck SCRF=Check GenChk RB3LYP/6-31G(2df,p) Fr
 eq
 ----------------------------------------------------------------------

 Structure from the checkpoint file:  "/scratch/puck/g09_ab035bc0-a3e1-4bb4-9adb-e48cfca63568/Gau-173978.chk"
 -----
 titel
 -----
 Charge =  0 Multiplicity = 1

                         Standard orientation:
 ---------------------------------------------------------------------
 Center     Atomic      Atomic             Coordinates (Angstroms)
 Number     Number       Type             X           Y           Z
 ---------------------------------------------------------------------
      1          8           0        2.460645   -1.298798   -0.125117
      2          6           0        1.368743   -0.534181    0.326327
      3          6           0        1.603713    1.001246    0.497688
      4          6           0        0.410834    1.285788   -0.438145
      5          8           0       -0.859464    1.342573    0.253274
      6          6           0       -1.131860   -0.027159   -0.073254
      7          6           0       -1.951550   -0.904471    0.811918
      8          6           0       -2.481003   -0.456075   -0.546563
      9          6           0        0.232133   -0.237092   -0.707333
     10          1           0        2.842295   -0.860236   -0.893276
     11          1           0        1.007543   -1.042767    1.223465
     12          1           0        1.527814    1.418116    1.504130
     13          1           0        2.561456    1.302610    0.057930
     14          1           0        0.498219    2.067803   -1.195959
     15          1           0       -1.655896   -1.940994    0.939810
     16          1           0       -2.389171   -0.444825    1.691557
     17          1           0       -2.544669   -1.187184   -1.346185
     18          1           0       -3.260932    0.297826   -0.552487
     19          1           0        0.297826   -0.728886   -1.678064
 ---------------------------------------------------------------------

 SCF Done:  E(RB3LYP) =  -423.127280214     A.U. after    1 cycles

 The electronic state is 1-A.
 Alpha  occ. eigenvalues --  -19.14172 -19.13578 -10.24118 -10.23586 -10.23513
 Alpha  occ. eigenvalues --  -10.19027 -10.18414 -10.18370 -10.18241  -1.04618
 Alpha  occ. eigenvalues --   -1.02340  -0.84697  -0.81607  -0.68984  -0.64671
 Alpha  occ. eigenvalues --   -0.60473  -0.58824  -0.52981  -0.50984  -0.50646
 Alpha  occ. eigenvalues --   -0.48311  -0.45313  -0.43536  -0.41928  -0.39027
 Alpha  occ. eigenvalues --   -0.37429  -0.37177  -0.35716  -0.33714  -0.32371
 Alpha  occ. eigenvalues --   -0.29519  -0.27740  -0.26066  -0.22769
 Alpha virt. eigenvalues --    0.06390   0.08094   0.09123   0.10337   0.11931
 Alpha virt. eigenvalues --    0.12990   0.13492   0.14437   0.15894   0.17308
 Alpha virt. eigenvalues --    0.18017   0.18653   0.20014   0.22155   0.22797

 Mulliken charges:
               1
     1  O   -0.436642
     2  C    0.158184
     3  C   -0.287024
     4  C    0.113964
     5  O   -0.324568
     6  C    0.483401
     7  C   -0.335858
     8  C   -0.350437
     9  C   -0.249111
    10  H    0.276999
    11  H    0.098591
    12  H    0.115751
    13  H    0.094677
    14  H    0.079636
    15  H    0.119300
    16  H    0.125935
    17  H    0.114800
    18  H    0.124859
    19  H    0.077543
 Sum of Mulliken charges =   0.00000

 Dipole moment (field-independent basis, Debye):
    X=              0.4512    Y=              0.1055    Z=             -1.3642  Tot=              1.4408
 Quadrupole moment (field-independent basis, Debye-Ang):
   XX=            -52.9855   YY=            -56.6347   ZZ=            -50.3655
   XY=              5.4294   XZ=             -2.8398   YZ=             -0.3305

  Exact polarizability:  87.761   4.904  71.014  -0.446  -1.066  67.765
 Approx polarizability: 112.875   2.939 106.240  -2.215  -1.234 103.032

                      1                      2                      3
                      A                      A                      A
 Frequencies --     73.4435               129.7798               210.9975
 Red. masses --      3.1817                 3.6683                 2.3905
 Frc consts  --      0.0101                 0.0364                 0.0627
 IR Inten    --      2.9168                 1.4326                 1.7746

                      4                      5                      6
                      A                      A                      A
 Frequencies --    278.9697               311.3692               371.3864
 Red. masses --      1.6787                 1.5083                 3.8157
 Frc consts  --      0.0770                 0.0862                 0.3101
 IR Inten    --     22.6257                40.1773                 1.7009

                      7                      8                      9
                      A                      A                      A
 Frequencies --    376.4928               425.0116               488.4989
 Red. masses --      3.4480                 2.6534                 2.5758
 Frc consts  --      0.2880                 0.2824                 0.3621
 IR Inten    --     35.5791                 3.2284                 0.1370

                     10                     11                     12
                      A                      A                      A
 Frequencies --    553.6074               739.0670               757.4424
 Red. masses --      3.9728                 2.5627                 1.1407
 Frc consts  --      0.7174                 0.8247                 0.3856
 IR Inten    --      4.3148                 9.7843                 5.0649

                     13                     14                     15
                      A                      A                      A
 Frequencies --    815.9663               821.8540               862.4657
 Red. masses --      2.2227                 1.6619                 1.5349
 Frc consts  --      0.8719                 0.6614                 0.6727
 IR Inten    --      1.9341                 7.0545                 4.9933

                     16                     17                     18
                      A                      A                      A
 Frequencies --    871.8295               904.9733               934.7035
 Red. masses --      2.8438                 1.9915                 2.2037
 Frc consts  --      1.2736                 0.9610                 1.1344
 IR Inten    --     15.2145                 9.2997                 1.7974

                     19                     20                     21
                      A                      A                      A
 Frequencies --    946.6411               979.0654              1002.8385
 Red. masses --      3.8911                 2.4322                 3.0691
 Frc consts  --      2.0545                 1.3736                 1.8185
 IR Inten    --      8.7058                19.5342                 6.5196

                     22                     23                     24
                      A                      A                      A
 Frequencies --   1013.2447              1036.7363              1046.5606
 Red. masses --      3.2830                 2.8495                 1.6038
 Frc consts  --      1.9859                 1.8045                 1.0349
 IR Inten    --     24.1678                76.7492                38.0026

                     25                     26                     27
                      A                      A                      A
 Frequencies --   1066.8164              1118.2611              1121.3670
 Red. masses --      1.4872                 1.3674                 2.7242
 Frc consts  --      0.9972                 1.0075                 2.0183
 IR Inten    --      0.1061                10.6590                96.0591

                     28                     29                     30
                      A                      A                      A
 Frequencies --   1162.1812              1185.6205              1197.6585
 Red. masses --      1.8534                 1.2585                 1.6695
 Frc consts  --      1.4749                 1.0423                 1.4109
 IR Inten    --      6.5692                 1.9557                 8.5624

                     31                     32                     33
                      A                      A                      A
 Frequencies --   1204.4962              1236.6476              1259.2481
 Red. masses --      1.4385                 1.7836                 1.5655
 Frc consts  --      1.2296                 1.6071                 1.4626
 IR Inten    --     28.0173                26.0668                11.7026

                     34                     35                     36
                      A                      A                      A
 Frequencies --   1274.7223              1320.0569              1333.2559
 Red. masses --      1.6662                 1.6404                 1.4577
 Frc consts  --      1.5952                 1.6842                 1.5266
 IR Inten    --     18.5538                 5.5029                15.2976

                     37                     38                     39
                      A                      A                      A
 Frequencies --   1390.4360              1430.9312              1446.8503
 Red. masses --      2.0927                 1.2190                 1.0904
 Frc consts  --      2.3837                 1.4706                 1.3449
 IR Inten    --     12.9950                57.5762                 1.6415

                     40                     41                     42
                      A                      A                      A
 Frequencies --   1455.2036              1498.4589              3043.3077
 Red. masses --      1.1185                 1.7879                 1.0635
 Frc consts  --      1.3955                 2.3653                 5.8034
 IR Inten    --      4.1336                21.6037                22.6199

                     43                     44                     45
                      A                      A                      A
 Frequencies --   3078.6191              3083.5179              3112.6443
 Red. masses --      1.0883                 1.0875                 1.0907
 Frc consts  --      6.0775                 6.0922                 6.2262
 IR Inten    --     72.6624                 5.1924                26.0572

                     46                     47                     48
                      A                      A                      A
 Frequencies --   3118.5048              3126.5245              3129.2436
 Red. masses --      1.1025                 1.0507                 1.0578
 Frc consts  --      6.3169                 6.0513                 6.1027
 IR Inten    --     16.6810                14.6001                 3.6654

                     49                     50                     51
                      A                      A                      A
 Frequencies --   3210.3147              3224.3817              3800.8900
 Red. masses --      1.1180                 1.1152                 1.0659
 Frc consts  --      6.7888                 6.8312                 9.0728
 IR Inten    --      0.1431                 9.0612                13.7299

 - Thermochemistry -
 -------------------
 Temperature   298.150 Kelvin.  Pressure   1.00000 Atm.
 Atom     1 has atomic number  8 and mass  15.99491

 Molecular mass:   126.06808 amu.
 Principal axes and moments of inertia in atomic units:
                           1         2         3
     Eigenvalues --   570.769081372.623031656.48842
           X            0.99918   0.04038  -0.00133
           Y           -0.04039   0.99915  -0.00869
           Z            0.00097   0.00873   0.99996
 This molecule is an asymmetric top.
 Rotational symmetry number  1.
 Warning -- assumption of classical behavior for rotation
           may cause significant error
 Rotational temperatures (Kelvin)      0.15175     0.06310     0.05229
 Rotational constants (GHZ):           3.16195     1.31481     1.08950
 Zero-point vibrational energy     416199.4 (Joules/Mol)
                                   99.47404 (Kcal/Mol)
 Warning -- explicit consideration of  10 degrees of freedom as
           vibrations may cause significant error
 Vibrational temperatures:    105.67   186.72   303.58   401.37   447.99
          (Kelvin)            534.34   541.69   611.50   702.84   796.52
                             1063.35  1089.79  1173.99  1182.46  1240.89
                             1254.37  1302.05  1344.83  1362.00  1408.65
                             1442.86  1457.83  1491.63  1505.77  1534.91
                             1608.93  1613.40  1672.12  1705.84  1723.16
                             1733.00  1779.26  1811.77  1834.04  1899.27
                             1918.26  2000.52  2058.79  2081.69  2093.71
                             2155.95  4378.64  4429.44  4436.49  4478.40
                             4486.83  4498.37  4502.28  4618.92  4639.16
                             5468.63

 Zero-point correction=                           0.158522 (Hartree/Particle)
 Thermal correction to Energy=                    0.166609
 Thermal correction to Enthalpy=                  0.167553
 Thermal correction to Gibbs Free Energy=         0.125819
 Sum of electronic and zero-point Energies=           -422.968758
 Sum of electronic and thermal Energies=              -422.960671
 Sum of electronic and thermal Enthalpies=            -422.959727
 Sum of electronic and thermal Free Energies=         -423.001461

                     E (Thermal)             CV                S
                      KCal/Mol        Cal/Mol-Kelvin    Cal/Mol-Kelvin
 Total                  104.549             31.852             87.836
 Electronic               0.000              0.000              0.000
 Translational            0.889              2.981             40.409
 Rotational               0.889              2.981             28.653
 Vibrational            102.771             25.890             18.775
 Vibration     1          0.599              1.967              4.059
 Vibration     2          0.612              1.924              2.949
 Vibration     3          0.643              1.824              2.035
 Vibration     4          0.679              1.712              1.540
 Vibration     5          0.700              1.652              1.355
 Vibration     6          0.743              1.531              1.074
 Vibration     7          0.747              1.520              1.053
 Vibration     8          0.787              1.416              0.875
 Vibration     9          0.844              1.276              0.688
 Vibration    10          0.909              1.132              0.537

 Normal termination of Gaussian 09 at Tue Jan 28 04:00:00 2020.
