 Gaussian 09, Revision D.01,
 Gaussian 09:  ES64L-G09RevD.01 24-Apr-2013

 -----------------------------
 # b3lyp 6-31G(2df,p) opt Freq
 -----------------------------

 -----
 titel
 -----
 Symbolic Z-matrix:
 Charge =  0 Multiplicity = 1

 SCF Done:  E(RB3LYP) =  -423.177026258     A.U. after   14 cycles
 Optimization completed.
    -- Stationary point found.
 Normal termination of Gaussian 09 at Tue Jan 28 00:05:48 2020.

 ----------------------------------------------------------------------
 #N Geom=AllCheck Guess=TCheck SCRF=Check GenChk RB3LYP/6-31G(2df,p) Fr
 eq
 ----------------------------------------------------------------------

 Structure from the checkpoint file:  "/scratch/puck/g09_ede852b2-b6c4-415d-b0fe-97b15efca7db/Gau-21330.chk"
 -----
 titel
 -----
 Charge =  0 Multiplicity = 1

                         Standard orientation:
 ---------------------------------------------------------------------
 Center     Atomic      Atomic             Coordinates (Angstroms)
 Number     Number       Type             X           Y           Z
 ---------------------------------------------------------------------
      1          6           0       -2.761686   -0.297763    0.318035
      2          6           0       -1.418310    0.031531   -0.337017
      3          6           0       -1.004111    1.486076   -0.252215
      4          6           0        0.290204    1.645542    0.034652
      5          6           0        0.941196    0.323384    0.193892
      6          6           0        2.299962    0.038207    0.652831
      7          8           0        1.985193   -0.049148   -0.746228
      8          6           0       -0.203273   -0.695496    0.311022
      9          8           0        0.129003   -1.946859   -0.233245
     10          1           0       -2.967009   -1.370648    0.251988
     11          1           0       -2.762567   -0.016406    1.377135
     12          1           0       -3.585254    0.233633   -0.170253
     13          1           0       -1.464581   -0.267184   -1.394177
     14          1           0       -1.704770    2.296449   -0.427451
     15          1           0        0.826121    2.584109    0.106117
     16          1           0        2.970261    0.853171    0.922746
     17          1           0        2.503921   -0.914977    1.139288
     18          1           0       -0.429661   -0.846326    1.375692
     19          1           0        0.836081   -1.772652   -0.872506
 ---------------------------------------------------------------------

 SCF Done:  E(RB3LYP) =  -423.177026258     A.U. after    1 cycles

 The electronic state is 1-A.
 Alpha  occ. eigenvalues --  -19.15947 -19.12976 -10.24455 -10.23751 -10.23154
 Alpha  occ. eigenvalues --  -10.19494 -10.19108 -10.18979 -10.17722  -1.07504
 Alpha  occ. eigenvalues --   -1.01291  -0.84501  -0.74651  -0.69817  -0.66700
 Alpha  occ. eigenvalues --   -0.63671  -0.57395  -0.55419  -0.52226  -0.48677
 Alpha  occ. eigenvalues --   -0.46601  -0.45007  -0.43164  -0.41574  -0.40674
 Alpha  occ. eigenvalues --   -0.38086  -0.36768  -0.36212  -0.34430  -0.33269
 Alpha  occ. eigenvalues --   -0.31943  -0.28014  -0.26113  -0.25021
 Alpha virt. eigenvalues --   -0.00320   0.09132   0.10145   0.10985   0.11733
 Alpha virt. eigenvalues --    0.13347   0.14045   0.14498   0.16045   0.16236
 Alpha virt. eigenvalues --    0.17571   0.18135   0.18644   0.20838   0.23488

 Mulliken charges:
               1
     1  C   -0.413160
     2  C   -0.051843
     3  C   -0.074372
     4  C   -0.166161
     5  C    0.354615
     6  C   -0.246710
     7  O   -0.290765
     8  C    0.051821
     9  O   -0.444003
    10  H    0.130946
    11  H    0.115327
    12  H    0.112633
    13  H    0.094077
    14  H    0.101919
    15  H    0.106348
    16  H    0.117946
    17  H    0.122521
    18  H    0.087832
    19  H    0.291031
 Sum of Mulliken charges =   0.00000

 Dipole moment (field-independent basis, Debye):
    X=             -0.2760    Y=              1.7032    Z=              1.0119  Tot=              2.0003
 Quadrupole moment (field-independent basis, Debye-Ang):
   XX=            -50.6298   YY=            -54.9308   ZZ=            -53.2583
   XY=             -0.8951   XZ=              3.5695   YZ=              0.4887

  Exact polarizability:  99.760  -0.334  74.643   6.061  -0.264  58.146
 Approx polarizability: 140.301  -1.561 106.818   7.120   1.886  95.812

                      1                      2                      3
                      A                      A                      A
 Frequencies --     65.1400               192.9415               231.4596
 Red. masses --      4.0705                 3.4545                 1.1322
 Frc consts  --      0.0102                 0.0758                 0.0357
 IR Inten    --      0.8809                 0.5320                 0.2160

                      4                      5                      6
                      A                      A                      A
 Frequencies --    248.9379               265.0102               298.8913
 Red. masses --      2.4392                 4.0563                 3.2299
 Frc consts  --      0.0891                 0.1678                 0.1700
 IR Inten    --      1.8481                14.2785                 5.3671

                      7                      8                      9
                      A                      A                      A
 Frequencies --    342.8019               438.6763               460.3837
 Red. masses --      2.5844                 2.5310                 1.3371
 Frc consts  --      0.1789                 0.2870                 0.1670
 IR Inten    --      6.8550                17.3281                41.4752

                     10                     11                     12
                      A                      A                      A
 Frequencies --    480.5208               584.3804               595.9726
 Red. masses --      3.5588                 3.1198                 4.0315
 Frc consts  --      0.4842                 0.6277                 0.8437
 IR Inten    --     13.0155                 9.8847                 2.9575

                     13                     14                     15
                      A                      A                      A
 Frequencies --    680.1202               760.6668               776.2382
 Red. masses --      5.3456                 4.5695                 1.5006
 Frc consts  --      1.4569                 1.5578                 0.5327
 IR Inten    --      8.6090                29.7179                23.3007

                     16                     17                     18
                      A                      A                      A
 Frequencies --    862.6721               887.2643               899.1517
 Red. masses --      1.9608                 1.9552                 3.2502
 Frc consts  --      0.8598                 0.9069                 1.5482
 IR Inten    --     11.0683                 4.2669                 3.1144

                     19                     20                     21
                      A                      A                      A
 Frequencies --    948.9406               974.4909               983.8489
 Red. masses --      1.7360                 1.2817                 3.6530
 Frc consts  --      0.9210                 0.7171                 2.0833
 IR Inten    --     10.0346                 1.7344                33.3942

                     22                     23                     24
                      A                      A                      A
 Frequencies --   1068.4248              1090.1657              1113.4366
 Red. masses --      1.7194                 1.8549                 1.5788
 Frc consts  --      1.1564                 1.2988                 1.1532
 IR Inten    --      7.1063                14.0160                 3.4491

                     25                     26                     27
                      A                      A                      A
 Frequencies --   1125.0847              1128.2077              1146.1235
 Red. masses --      1.4003                 3.2294                 1.4310
 Frc consts  --      1.0443                 2.4218                 1.1075
 IR Inten    --      4.3339                71.1922                18.2518

                     28                     29                     30
                      A                      A                      A
 Frequencies --   1173.9511              1240.2679              1245.4986
 Red. masses --      1.3191                 1.8049                 1.4509
 Frc consts  --      1.0711                 1.6358                 1.3261
 IR Inten    --      1.5465                 0.9221                15.2021

                     31                     32                     33
                      A                      A                      A
 Frequencies --   1293.6287              1320.3090              1339.7361
 Red. masses --      1.6759                 1.5161                 1.6837
 Frc consts  --      1.6524                 1.5571                 1.7806
 IR Inten    --      0.0335                14.1118                 3.5702

                     34                     35                     36
                      A                      A                      A
 Frequencies --   1374.6911              1405.9908              1430.6029
 Red. masses --      1.6313                 1.2698                 1.5484
 Frc consts  --      1.8163                 1.4790                 1.8671
 IR Inten    --      1.7975                 3.3066                21.9532

                     37                     38                     39
                      A                      A                      A
 Frequencies --   1447.1736              1498.1538              1499.0067
 Red. masses --      1.6203                 1.0517                 1.0447
 Frc consts  --      1.9993                 1.3908                 1.3831
 IR Inten    --     61.7023                 5.7177                 4.6073

                     40                     41                     42
                      A                      A                      A
 Frequencies --   1521.0948              1665.6155              3001.0063
 Red. masses --      1.4694                 6.9158                 1.0811
 Frc consts  --      2.0031                11.3043                 5.7366
 IR Inten    --      1.6377                 3.4759                 3.1197

                     43                     44                     45
                      A                      A                      A
 Frequencies --   3013.5702              3029.6404              3081.3037
 Red. masses --      1.0843                 1.0360                 1.0506
 Frc consts  --      5.8016                 5.6025                 5.8767
 IR Inten    --     35.7002                34.1199                28.8933

                     46                     47                     48
                      A                      A                      A
 Frequencies --   3096.4482              3107.6003              3169.6577
 Red. masses --      1.1013                 1.1015                 1.1194
 Frc consts  --      6.2213                 6.2674                 6.6261
 IR Inten    --     31.4105                18.1541                15.3454

                     49                     50                     51
                      A                      A                      A
 Frequencies --   3179.3063              3213.1997              3714.0804
 Red. masses --      1.0876                 1.1017                 1.0649
 Frc consts  --      6.4772                 6.7019                 8.6553
 IR Inten    --      7.4259                13.6721                52.3930

 - Thermochemistry -
 -------------------
 Temperature   298.150 Kelvin.  Pressure   1.00000 Atm.
 Atom     1 has atomic number  6 and mass  12.00000

 Molecular mass:   126.06808 amu.
 Principal axes and moments of inertia in atomic units:
                           1         2         3
     Eigenvalues --   628.922991237.852901661.21840
           X            0.99993   0.00575   0.01055
           Y           -0.00570   0.99997  -0.00493
           Z           -0.01057   0.00487   0.99993
 This molecule is an asymmetric top.
 Rotational symmetry number  1.
 Warning -- assumption of classical behavior for rotation
           may cause significant error
 Rotational temperatures (Kelvin)      0.13772     0.06997     0.05214
 Rotational constants (GHZ):           2.86957     1.45796     1.08640
 Zero-point vibrational energy     416967.3 (Joules/Mol)
                                   99.65757 (Kcal/Mol)
 Warning -- explicit consideration of  12 degrees of freedom as
           vibrations may cause significant error
 Vibrational temperatures:     93.72   277.60   333.02   358.17   381.29
          (Kelvin)            430.04   493.21   631.16   662.39   691.36
                              840.79   857.47   978.54  1094.43  1116.83
                             1241.19  1276.57  1293.68  1365.31  1402.07
                             1415.54  1537.22  1568.50  1601.98  1618.74
                             1623.24  1649.01  1689.05  1784.47  1791.99
                             1861.24  1899.63  1927.58  1977.87  2022.90
                             2058.32  2082.16  2155.51  2156.73  2188.51
                             2396.45  4317.77  4335.85  4358.97  4433.30
                             4455.09  4471.14  4560.42  4574.31  4623.07
                             5343.73

 Zero-point correction=                           0.158814 (Hartree/Particle)
 Thermal correction to Energy=                    0.167240
 Thermal correction to Enthalpy=                  0.168184
 Thermal correction to Gibbs Free Energy=         0.125958
 Sum of electronic and zero-point Energies=           -423.018212
 Sum of electronic and thermal Energies=              -423.009786
 Sum of electronic and thermal Enthalpies=            -423.008842
 Sum of electronic and thermal Free Energies=         -423.051068

                     E (Thermal)             CV                S
                      KCal/Mol        Cal/Mol-Kelvin    Cal/Mol-Kelvin
 Total                  104.945             32.841             88.872
 Electronic               0.000              0.000              0.000
 Translational            0.889              2.981             40.409
 Rotational               0.889              2.981             28.649
 Vibrational            103.167             26.879             19.815
 Vibration     1          0.597              1.971              4.295
 Vibration     2          0.635              1.850              2.199
 Vibration     3          0.653              1.793              1.868
 Vibration     4          0.662              1.765              1.738
 Vibration     5          0.671              1.737              1.629
 Vibration     6          0.692              1.676              1.423
 Vibration     7          0.722              1.590              1.199
 Vibration     8          0.799              1.386              0.831
 Vibration     9          0.818              1.338              0.765
 Vibration    10          0.837              1.293              0.709
 Vibration    11          0.941              1.065              0.477
 Vibration    12          0.954              1.040              0.457

 Optimization completed.
    -- Stationary point found.
 Normal termination of Gaussian 09 at Tue Jan 28 00:54:05 2020.
