 Gaussian 09, Revision D.01,
 Gaussian 09:  ES64L-G09RevD.01 24-Apr-2013

 -----------------------------
 # b3lyp 6-31G(2df,p) opt Freq
 -----------------------------

 -----
 titel
 -----
 Symbolic Z-matrix:
 Charge =  0 Multiplicity = 1

 SCF Done:  E(RB3LYP) =  -423.182335560     A.U. after   13 cycles
 Optimization completed.
    -- Stationary point found.
 Normal termination of Gaussian 09 at Mon Jan 27 17:36:07 2020.

 ----------------------------------------------------------------------
 #N Geom=AllCheck Guess=TCheck SCRF=Check GenChk RB3LYP/6-31G(2df,p) Fr
 eq
 ----------------------------------------------------------------------

 Structure from the checkpoint file:  "/scratch/puck/g09_5c48d005-c385-490f-a45e-bc029709370a/Gau-73160.chk"
 -----
 titel
 -----
 Charge =  0 Multiplicity = 1

                         Standard orientation:
 ---------------------------------------------------------------------
 Center     Atomic      Atomic             Coordinates (Angstroms)
 Number     Number       Type             X           Y           Z
 ---------------------------------------------------------------------
      1          8           0        1.722004    1.330981   -0.411762
      2          6           0        1.013928    0.243114    0.094900
      3          6           0        1.628122   -1.129356    0.179453
      4          6           0        0.520194   -0.853227   -0.818154
      5          6           0       -0.915611   -1.055343   -0.331366
      6          6           0       -1.757904    0.145730   -0.827634
      7          6           0       -1.238700    1.285405    0.106518
      8          6           0       -0.218141    0.510040    0.974628
      9          8           0       -0.812198   -0.789710    1.079681
     10          1           0        2.345523    1.619833    0.263533
     11          1           0        2.620276   -1.211650   -0.250873
     12          1           0        1.430782   -1.759508    1.038923
     13          1           0        0.739784   -0.837767   -1.878746
     14          1           0       -1.353693   -2.042889   -0.480386
     15          1           0       -1.595277    0.356450   -1.887703
     16          1           0       -2.823499   -0.042318   -0.676880
     17          1           0       -0.762381    2.103231   -0.437079
     18          1           0       -2.041111    1.696480    0.722854
     19          1           0       -0.030190    0.909792    1.972922
 ---------------------------------------------------------------------

 SCF Done:  E(RB3LYP) =  -423.182335560     A.U. after    1 cycles

 The electronic state is 1-A.
 Alpha  occ. eigenvalues --  -19.14889 -19.13550 -10.23352 -10.22978 -10.22761
 Alpha  occ. eigenvalues --  -10.18442 -10.18087 -10.17915 -10.17656  -1.05093
 Alpha  occ. eigenvalues --   -1.02816  -0.84516  -0.77115  -0.73540  -0.63449
 Alpha  occ. eigenvalues --   -0.59164  -0.57264  -0.55832  -0.52870  -0.49237
 Alpha  occ. eigenvalues --   -0.47927  -0.43588  -0.41847  -0.41404  -0.38463
 Alpha  occ. eigenvalues --   -0.38029  -0.35623  -0.34653  -0.33656  -0.33579
 Alpha  occ. eigenvalues --   -0.31802  -0.26797  -0.25853  -0.24659
 Alpha virt. eigenvalues --    0.07619   0.09304   0.11237   0.12817   0.14007
 Alpha virt. eigenvalues --    0.14487   0.15550   0.15867   0.16512   0.16734
 Alpha virt. eigenvalues --    0.18191   0.18926   0.20513   0.22341   0.23743

 Mulliken charges:
               1
     1  O   -0.472528
     2  C    0.402935
     3  C   -0.375354
     4  C   -0.097871
     5  C    0.059534
     6  C   -0.212198
     7  C   -0.215543
     8  C   -0.007434
     9  O   -0.262797
    10  H    0.285358
    11  H    0.110528
    12  H    0.123835
    13  H    0.097410
    14  H    0.077227
    15  H    0.101034
    16  H    0.101618
    17  H    0.116687
    18  H    0.097302
    19  H    0.070258
 Sum of Mulliken charges =   0.00000

 Dipole moment (field-independent basis, Debye):
    X=              0.6854    Y=              0.5730    Z=             -0.0224  Tot=              0.8936
 Quadrupole moment (field-independent basis, Debye-Ang):
   XX=            -49.7094   YY=            -53.1306   ZZ=            -53.4589
   XY=              0.6226   XZ=              3.8211   YZ=              4.3226

  Exact polarizability:  79.829  -1.926  72.870   3.167   2.912  66.607
 Approx polarizability: 108.129   1.990 108.961   3.627   2.611 105.711

                      1                      2                      3
                      A                      A                      A
 Frequencies --    176.1723               252.1600               297.7300
 Red. masses --      2.6979                 2.4387                 1.9259
 Frc consts  --      0.0493                 0.0914                 0.1006
 IR Inten    --      2.0835                 1.5759                39.7083

                      4                      5                      6
                      A                      A                      A
 Frequencies --    323.5821               376.8148               448.2383
 Red. masses --      1.3349                 3.1735                 2.6497
 Frc consts  --      0.0824                 0.2655                 0.3137
 IR Inten    --     54.5331                 4.6050                 2.0042

                      7                      8                      9
                      A                      A                      A
 Frequencies --    488.4283               544.7330               603.4272
 Red. masses --      3.6101                 4.7959                 4.5549
 Frc consts  --      0.5074                 0.8385                 0.9772
 IR Inten    --     10.4254                 3.9202                 5.2987

                     10                     11                     12
                      A                      A                      A
 Frequencies --    667.0944               749.6207               826.9777
 Red. masses --      3.7144                 2.7554                 2.0618
 Frc consts  --      0.9739                 0.9123                 0.8308
 IR Inten    --      2.7759                 2.0906                 7.8332

                     13                     14                     15
                      A                      A                      A
 Frequencies --    828.2083               848.3433               887.1999
 Red. masses --      2.6766                 2.0824                 1.9765
 Frc consts  --      1.0817                 0.8830                 0.9166
 IR Inten    --      6.3068                 1.2811                10.0859

                     16                     17                     18
                      A                      A                      A
 Frequencies --    908.9730               930.9190               947.3157
 Red. masses --      2.4727                 2.9945                 2.1447
 Frc consts  --      1.2037                 1.5290                 1.1340
 IR Inten    --      3.9463                29.3803                14.0176

                     19                     20                     21
                      A                      A                      A
 Frequencies --    955.4782               978.9119              1013.7611
 Red. masses --      2.1048                 1.9912                 2.1575
 Frc consts  --      1.1321                 1.1242                 1.3064
 IR Inten    --     11.6135                 5.5163                21.0650

                     22                     23                     24
                      A                      A                      A
 Frequencies --   1023.2610              1036.6211              1069.4287
 Red. masses --      2.8094                 2.1776                 1.6262
 Frc consts  --      1.7331                 1.3787                 1.0958
 IR Inten    --     11.4839                 1.0936                 3.9135

                     25                     26                     27
                      A                      A                      A
 Frequencies --   1076.8374              1086.3869              1153.0666
 Red. masses --      1.4979                 2.1965                 1.1706
 Frc consts  --      1.0234                 1.5274                 0.9170
 IR Inten    --     22.5926                 3.6365                 9.7209

                     28                     29                     30
                      A                      A                      A
 Frequencies --   1220.3767              1229.9429              1236.6327
 Red. masses --      1.5124                 1.3868                 1.4673
 Frc consts  --      1.3271                 1.2361                 1.3221
 IR Inten    --     39.2250                 1.1896                11.6793

                     31                     32                     33
                      A                      A                      A
 Frequencies --   1253.2010              1270.0525              1305.3830
 Red. masses --      1.5531                 1.5340                 1.3719
 Frc consts  --      1.4371                 1.4578                 1.3774
 IR Inten    --     16.5701                27.5448                20.7853

                     34                     35                     36
                      A                      A                      A
 Frequencies --   1308.4091              1326.4823              1338.1422
 Red. masses --      1.6840                 1.7406                 1.7283
 Frc consts  --      1.6985                 1.8045                 1.8234
 IR Inten    --      4.2483                 9.4241                32.7065

                     37                     38                     39
                      A                      A                      A
 Frequencies --   1349.6301              1395.7080              1473.2811
 Red. masses --      1.6104                 1.5832                 1.5869
 Frc consts  --      1.7283                 1.8170                 2.0294
 IR Inten    --      5.0408                 8.3359                 9.1402

                     40                     41                     42
                      A                      A                      A
 Frequencies --   1483.6196              1504.4657              3063.7475
 Red. masses --      1.1080                 1.1028                 1.0591
 Frc consts  --      1.4370                 1.4707                 5.8574
 IR Inten    --      0.4139                 4.3130                23.1569

                     43                     44                     45
                      A                      A                      A
 Frequencies --   3076.0878              3101.1463              3106.5003
 Red. masses --      1.0621                 1.0870                 1.1035
 Frc consts  --      5.9212                 6.1591                 6.2746
 IR Inten    --     31.3126                58.4089                 2.1805

                     46                     47                     48
                      A                      A                      A
 Frequencies --   3113.5827              3130.9441              3136.4008
 Red. masses --      1.0926                 1.1059                 1.0529
 Frc consts  --      6.2405                 6.3874                 6.1027
 IR Inten    --     32.5639                29.6282                10.9429

                     49                     50                     51
                      A                      A                      A
 Frequencies --   3191.5598              3229.8963              3795.4653
 Red. masses --      1.0921                 1.1166                 1.0662
 Frc consts  --      6.5544                 6.8634                 9.0494
 IR Inten    --      5.5913                 4.2749                23.0513

 - Thermochemistry -
 -------------------
 Temperature   298.150 Kelvin.  Pressure   1.00000 Atm.
 Atom     1 has atomic number  8 and mass  15.99491

 Molecular mass:   126.06808 amu.
 Principal axes and moments of inertia in atomic units:
                           1         2         3
     Eigenvalues --   658.04136 959.340101157.63369
           X            0.99746  -0.06475   0.02970
           Y            0.06325   0.99681   0.04872
           Z           -0.03276  -0.04672   0.99837
 This molecule is an asymmetric top.
 Rotational symmetry number  1.
 Warning -- assumption of classical behavior for rotation
           may cause significant error
 Rotational temperatures (Kelvin)      0.13162     0.09028     0.07482
 Rotational constants (GHZ):           2.74260     1.88123     1.55899
 Zero-point vibrational energy     425513.8 (Joules/Mol)
                                  101.70023 (Kcal/Mol)
 Warning -- explicit consideration of   9 degrees of freedom as
           vibrations may cause significant error
 Vibrational temperatures:    253.47   362.80   428.37   465.56   542.15
          (Kelvin)            644.91   702.74   783.75   868.20   959.80
                             1078.54  1189.83  1191.61  1220.58  1276.48
                             1307.81  1339.38  1362.97  1374.72  1408.43
                             1458.57  1472.24  1491.46  1538.67  1549.33
                             1563.07  1659.00  1755.85  1769.61  1779.24
                             1803.07  1827.32  1878.15  1882.51  1908.51
                             1925.29  1941.81  2008.11  2119.72  2134.60
                             2164.59  4408.04  4425.80  4461.85  4469.56
                             4479.75  4504.72  4512.58  4591.94  4647.09
                             5460.82

 Zero-point correction=                           0.162070 (Hartree/Particle)
 Thermal correction to Energy=                    0.169042
 Thermal correction to Enthalpy=                  0.169986
 Thermal correction to Gibbs Free Energy=         0.131227
 Sum of electronic and zero-point Energies=           -423.020266
 Sum of electronic and thermal Energies=              -423.013294
 Sum of electronic and thermal Enthalpies=            -423.012349
 Sum of electronic and thermal Free Energies=         -423.051109

                     E (Thermal)             CV                S
                      KCal/Mol        Cal/Mol-Kelvin    Cal/Mol-Kelvin
 Total                  106.075             29.497             81.576
 Electronic               0.000              0.000              0.000
 Translational            0.889              2.981             40.409
 Rotational               0.889              2.981             28.082
 Vibrational            104.298             23.535             13.086
 Vibration     1          0.628              1.872              2.369
 Vibration     2          0.664              1.759              1.715
 Vibration     3          0.691              1.678              1.430
 Vibration     4          0.708              1.628              1.292
 Vibration     5          0.747              1.520              1.052
 Vibration     6          0.807              1.365              0.801
 Vibration     7          0.844              1.276              0.688
 Vibration     8          0.900              1.151              0.555
 Vibration     9          0.962              1.025              0.444

 Optimization completed.
    -- Stationary point found.
 Normal termination of Gaussian 09 at Mon Jan 27 18:35:40 2020.
