 Gaussian 09, Revision D.01,
 Gaussian 09:  ES64L-G09RevD.01 24-Apr-2013

 -----------------------------
 # b3lyp 6-31G(2df,p) opt Freq
 -----------------------------

 -----
 titel
 -----
 Symbolic Z-matrix:
 Charge =  0 Multiplicity = 1

 SCF Done:  E(RB3LYP) =  -423.229875215     A.U. after   14 cycles
 Optimization completed.
    -- Stationary point found.
 Normal termination of Gaussian 09 at Tue Jan 28 01:54:50 2020.

 ----------------------------------------------------------------------
 #N Geom=AllCheck Guess=TCheck SCRF=Check GenChk RB3LYP/6-31G(2df,p) Fr
 eq
 ----------------------------------------------------------------------

 Structure from the checkpoint file:  "/scratch/puck/g09_96f4f0dd-5628-4dd5-a10e-7dcdc002e43e/Gau-87571.chk"
 -----
 titel
 -----
 Charge =  0 Multiplicity = 1

                         Standard orientation:
 ---------------------------------------------------------------------
 Center     Atomic      Atomic             Coordinates (Angstroms)
 Number     Number       Type             X           Y           Z
 ---------------------------------------------------------------------
      1          6           0       -2.871268   -1.036078    0.496316
      2          6           0       -1.851739   -0.330714   -0.405425
      3          6           0       -0.389395   -0.818828   -0.214114
      4          6           0        0.492908    0.443089   -0.321811
      5          8           0        1.530166    0.488424    0.698894
      6          6           0        2.655843   -0.181802    0.428859
      7          8           0        2.882545   -0.831681   -0.555973
      8          6           0       -0.470824    1.574548   -0.101285
      9          6           0       -1.733186    1.158135   -0.163092
     10          1           0       -3.882441   -0.649785    0.329667
     11          1           0       -2.889514   -2.113049    0.299742
     12          1           0       -2.624041   -0.889384    1.553299
     13          1           0       -2.157637   -0.493536   -1.449560
     14          1           0       -0.271095   -1.222221    0.797353
     15          1           0       -0.093368   -1.597110   -0.919360
     16          1           0        1.003280    0.508216   -1.288104
     17          1           0        3.358646   -0.041760    1.265706
     18          1           0       -0.134143    2.595437    0.034669
     19          1           0       -2.605412    1.799138   -0.083468
 ---------------------------------------------------------------------

 SCF Done:  E(RB3LYP) =  -423.229875215     A.U. after    1 cycles

 The electronic state is 1-A.
 Alpha  occ. eigenvalues --  -19.18433 -19.13046 -10.30500 -10.24514 -10.19778
 Alpha  occ. eigenvalues --  -10.18964 -10.18603 -10.18520 -10.17961  -1.10055
 Alpha  occ. eigenvalues --   -1.01731  -0.85389  -0.75593  -0.72103  -0.67388
 Alpha  occ. eigenvalues --   -0.61037  -0.56486  -0.54229  -0.52151  -0.50032
 Alpha  occ. eigenvalues --   -0.46616  -0.45602  -0.43898  -0.41388  -0.39886
 Alpha  occ. eigenvalues --   -0.38799  -0.37294  -0.35755  -0.34501  -0.34117
 Alpha  occ. eigenvalues --   -0.33356  -0.29837  -0.28160  -0.25359
 Alpha virt. eigenvalues --    0.00832   0.01262   0.09244   0.11186   0.12309
 Alpha virt. eigenvalues --    0.13417   0.13813   0.15451   0.15666   0.16370
 Alpha virt. eigenvalues --    0.17368   0.18125   0.19048   0.20162   0.22752

 Mulliken charges:
               1
     1  C   -0.397172
     2  C   -0.020918
     3  C   -0.250206
     4  C    0.102787
     5  O   -0.223738
     6  C    0.182820
     7  O   -0.309042
     8  C   -0.110706
     9  C   -0.066250
    10  H    0.114193
    11  H    0.118297
    12  H    0.119566
    13  H    0.086872
    14  H    0.112079
    15  H    0.118261
    16  H    0.112101
    17  H    0.107862
    18  H    0.104305
    19  H    0.098886
 Sum of Mulliken charges =   0.00000

 Dipole moment (field-independent basis, Debye):
    X=             -1.8798    Y=              0.8538    Z=              0.6141  Tot=              2.1540
 Quadrupole moment (field-independent basis, Debye-Ang):
   XX=            -54.4791   YY=            -52.7888   ZZ=            -53.8711
   XY=              3.1775   XZ=              4.6482   YZ=             -1.6531

  Exact polarizability: 102.337   0.374  72.853   1.754   2.923  60.568
 Approx polarizability: 136.053  -0.102 106.877   0.263  10.091  98.950

                      1                      2                      3
                      A                      A                      A
 Frequencies --     38.4705                59.9011               163.5809
 Red. masses --      6.4242                 2.8388                 3.8139
 Frc consts  --      0.0056                 0.0060                 0.0601
 IR Inten    --      1.5235                 0.5233                 3.5662

                      4                      5                      6
                      A                      A                      A
 Frequencies --    229.5759               232.5757               279.9369
 Red. masses --      1.4743                 1.7421                 3.1091
 Frc consts  --      0.0458                 0.0555                 0.1436
 IR Inten    --      3.0673                 2.2372                 7.8254

                      7                      8                      9
                      A                      A                      A
 Frequencies --    311.9734               385.8088               448.3129
 Red. masses --      2.5952                 2.4279                 3.4783
 Frc consts  --      0.1488                 0.2129                 0.4119
 IR Inten    --      3.1471                 2.4906                 8.8907

                     10                     11                     12
                      A                      A                      A
 Frequencies --    543.9285               579.3899               729.8165
 Red. masses --      3.0887                 2.7819                 4.3518
 Frc consts  --      0.5384                 0.5502                 1.3657
 IR Inten    --      0.8006                 2.0148                 0.2691

                     13                     14                     15
                      A                      A                      A
 Frequencies --    774.1341               809.8833               844.0455
 Red. masses --      1.4466                 4.8780                 2.7412
 Frc consts  --      0.5108                 1.8851                 1.1506
 IR Inten    --     16.1981                 6.1823                 2.1547

                     16                     17                     18
                      A                      A                      A
 Frequencies --    873.8909               927.8927               953.3921
 Red. masses --      2.4957                 1.9022                 1.6114
 Frc consts  --      1.1229                 0.9649                 0.8630
 IR Inten    --     22.3821                 0.3103                10.7018

                     19                     20                     21
                      A                      A                      A
 Frequencies --    978.7307               997.7099              1040.5960
 Red. masses --      1.3686                 2.4193                 1.9289
 Frc consts  --      0.7724                 1.4189                 1.2306
 IR Inten    --     10.5920                25.1193                 3.7622

                     22                     23                     24
                      A                      A                      A
 Frequencies --   1047.7481              1076.1045              1118.4798
 Red. masses --      1.7595                 1.6897                 1.5277
 Frc consts  --      1.1380                 1.1528                 1.1260
 IR Inten    --      0.6381                13.2728                 9.7149

                     25                     26                     27
                      A                      A                      A
 Frequencies --   1133.9924              1156.9760              1204.1322
 Red. masses --      2.2430                 1.3328                 3.9865
 Frc consts  --      1.6994                 1.0511                 3.4056
 IR Inten    --      6.8405                 2.0274               323.4682

                     28                     29                     30
                      A                      A                      A
 Frequencies --   1212.0898              1284.0586              1298.8004
 Red. masses --      2.0178                 1.2981                 1.2961
 Frc consts  --      1.7466                 1.2610                 1.2881
 IR Inten    --    105.0459                 2.1579                 1.5575

                     31                     32                     33
                      A                      A                      A
 Frequencies --   1322.5639              1343.3356              1369.0727
 Red. masses --      1.7111                 1.3718                 1.3239
 Frc consts  --      1.7635                 1.4585                 1.4620
 IR Inten    --      1.4463                 4.4774                 2.5196

                     34                     35                     36
                      A                      A                      A
 Frequencies --   1392.8851              1407.8411              1411.8249
 Red. masses --      1.5575                 1.1480                 1.2744
 Frc consts  --      1.7804                 1.3406                 1.4966
 IR Inten    --     18.0669                 1.9567                 3.5286

                     37                     38                     39
                      A                      A                      A
 Frequencies --   1487.2066              1497.4861              1498.7257
 Red. masses --      1.0862                 1.0458                 1.0546
 Frc consts  --      1.4155                 1.3817                 1.3957
 IR Inten    --      1.5656                 4.4994                 2.4692

                     40                     41                     42
                      A                      A                      A
 Frequencies --   1687.9284              1814.9636              2990.8353
 Red. masses --      6.7975                 9.5752                 1.0821
 Frc consts  --     11.4106                18.5837                 5.7029
 IR Inten    --      1.4175               281.9743                25.1745

                     43                     44                     45
                      A                      A                      A
 Frequencies --   3021.0029              3029.0463              3054.0952
 Red. masses --      1.0899                 1.0348                 1.0704
 Frc consts  --      5.8604                 5.5941                 5.8823
 IR Inten    --     77.7632                26.4827                 5.1276

                     46                     47                     48
                      A                      A                      A
 Frequencies --   3058.9691              3099.1254              3101.6910
 Red. masses --      1.0782                 1.1015                 1.1019
 Frc consts  --      5.9441                 6.2330                 6.2459
 IR Inten    --     18.2007                28.4637                24.1707

                     49                     50                     51
                      A                      A                      A
 Frequencies --   3122.1615              3181.2508              3212.9891
 Red. masses --      1.0997                 1.0865                 1.1027
 Frc consts  --      6.3161                 6.4784                 6.7071
 IR Inten    --     18.1474                 7.6942                13.5772

 - Thermochemistry -
 -------------------
 Temperature   298.150 Kelvin.  Pressure   1.00000 Atm.
 Atom     1 has atomic number  6 and mass  12.00000

 Molecular mass:   126.06808 amu.
 Principal axes and moments of inertia in atomic units:
                           1         2         3
     Eigenvalues --   491.161561871.368482136.69980
           X            0.99979   0.02054  -0.00063
           Y           -0.02055   0.99950  -0.02396
           Z            0.00013   0.02396   0.99971
 This molecule is an asymmetric top.
 Rotational symmetry number  1.
 Warning -- assumption of classical behavior for rotation
           may cause significant error
 Rotational temperatures (Kelvin)      0.17634     0.04628     0.04054
 Rotational constants (GHZ):           3.67443     0.96440     0.84464
 Zero-point vibrational energy     417741.5 (Joules/Mol)
                                   99.84262 (Kcal/Mol)
 Warning -- explicit consideration of  11 degrees of freedom as
           vibrations may cause significant error
 Vibrational temperatures:     55.35    86.18   235.36   330.31   334.62
          (Kelvin)            402.77   448.86   555.09   645.02   782.59
                              833.61  1050.04  1113.80  1165.24  1214.39
                             1257.33  1335.03  1371.72  1408.17  1435.48
                             1497.18  1507.47  1548.27  1609.24  1631.56
                             1664.63  1732.48  1743.92  1847.47  1868.68
                             1902.87  1932.76  1969.79  2004.05  2025.57
                             2031.30  2139.76  2154.55  2156.33  2428.55
                             2611.32  4303.14  4346.54  4358.12  4394.16
                             4401.17  4458.94  4462.64  4492.09  4577.10
                             4622.77

 Zero-point correction=                           0.159109 (Hartree/Particle)
 Thermal correction to Energy=                    0.167906
 Thermal correction to Enthalpy=                  0.168850
 Thermal correction to Gibbs Free Energy=         0.124463
 Sum of electronic and zero-point Energies=           -423.070766
 Sum of electronic and thermal Energies=              -423.061970
 Sum of electronic and thermal Enthalpies=            -423.061025
 Sum of electronic and thermal Free Energies=         -423.105412

                     E (Thermal)             CV                S
                      KCal/Mol        Cal/Mol-Kelvin    Cal/Mol-Kelvin
 Total                  105.362             32.149             93.419
 Electronic               0.000              0.000              0.000
 Translational            0.889              2.981             40.409
 Rotational               0.889              2.981             29.064
 Vibrational            103.585             26.187             23.946
 Vibration     1          0.594              1.982              5.336
 Vibration     2          0.597              1.973              4.460
 Vibration     3          0.623              1.887              2.508
 Vibration     4          0.652              1.796              1.882
 Vibration     5          0.653              1.791              1.859
 Vibration     6          0.680              1.711              1.534
 Vibration     7          0.700              1.651              1.352
 Vibration     8          0.754              1.500              1.016
 Vibration     9          0.807              1.365              0.801
 Vibration    10          0.899              1.153              0.557
 Vibration    11          0.936              1.076              0.486

 Normal termination of Gaussian 09 at Tue Jan 28 02:31:42 2020.
