 Gaussian 09, Revision D.01,
 Gaussian 09:  ES64L-G09RevD.01 24-Apr-2013

 -----------------------------
 # b3lyp 6-31G(2df,p) opt Freq
 -----------------------------

 -----
 titel
 -----
 Symbolic Z-matrix:
 Charge =  0 Multiplicity = 1

 SCF Done:  E(RB3LYP) =  -423.187441522     A.U. after   14 cycles
 Optimization completed.
    -- Stationary point found.
 Normal termination of Gaussian 09 at Tue Jan 28 14:13:27 2020.

 ----------------------------------------------------------------------
 #N Geom=AllCheck Guess=TCheck SCRF=Check GenChk RB3LYP/6-31G(2df,p) Fr
 eq
 ----------------------------------------------------------------------

 Structure from the checkpoint file:  "/scratch/puck/g09_aba9e37e-47a3-4b85-bfa6-4755b4b1bf7a/Gau-111705.chk"
 -----
 titel
 -----
 Charge =  0 Multiplicity = 1

                         Standard orientation:
 ---------------------------------------------------------------------
 Center     Atomic      Atomic             Coordinates (Angstroms)
 Number     Number       Type             X           Y           Z
 ---------------------------------------------------------------------
      1          6           0        3.880582   -0.338758    0.100774
      2          6           0        2.416456   -0.588187   -0.268515
      3          6           0        1.519611    0.629824   -0.006485
      4          6           0        0.074151    0.403191   -0.399296
      5          6           0       -1.003515    1.143526    0.299988
      6          8           0       -2.278427    0.871619   -0.343885
      7          6           0       -2.193881   -0.466607    0.042378
      8          8           0       -3.022232   -1.305925   -0.089542
      9          6           0       -0.822093   -0.314111    0.639815
     10          1           0        4.495265   -1.221468   -0.098786
     11          1           0        4.298355    0.495100   -0.474099
     12          1           0        3.986056   -0.093069    1.163348
     13          1           0        2.344562   -0.863699   -1.328392
     14          1           0        2.031753   -1.447343    0.294487
     15          1           0        1.574611    0.906249    1.055132
     16          1           0        1.901998    1.492818   -0.567406
     17          1           0       -0.096574    0.171452   -1.448415
     18          1           0       -0.932353    2.034556    0.907597
     19          1           0       -0.426265   -0.813412    1.511998
 ---------------------------------------------------------------------

 SCF Done:  E(RB3LYP) =  -423.187441522     A.U. after    1 cycles

 The electronic state is 1-A.
 Alpha  occ. eigenvalues --  -19.17658 -19.13550 -10.31088 -10.26412 -10.22497
 Alpha  occ. eigenvalues --  -10.21822 -10.20434 -10.19498 -10.18445  -1.10773
 Alpha  occ. eigenvalues --   -1.03619  -0.87147  -0.79538  -0.71462  -0.66652
 Alpha  occ. eigenvalues --   -0.61631  -0.59556  -0.54374  -0.52709  -0.50617
 Alpha  occ. eigenvalues --   -0.46967  -0.45823  -0.43574  -0.42675  -0.41484
 Alpha  occ. eigenvalues --   -0.39097  -0.38419  -0.36817  -0.35719  -0.34379
 Alpha  occ. eigenvalues --   -0.34195  -0.30239  -0.27896  -0.27425
 Alpha virt. eigenvalues --    0.00345   0.07624   0.08850   0.09815   0.10360
 Alpha virt. eigenvalues --    0.12183   0.13208   0.13652   0.14385   0.15345
 Alpha virt. eigenvalues --    0.16802   0.17962   0.18716   0.19039   0.20670

 Mulliken charges:
               1
     1  C   -0.383618
     2  C   -0.157542
     3  C   -0.223673
     4  C   -0.039359
     5  C    0.062904
     6  O   -0.265704
     7  C    0.468735
     8  O   -0.324703
     9  C   -0.281737
    10  H    0.118797
    11  H    0.117595
    12  H    0.116145
    13  H    0.104164
    14  H    0.104924
    15  H    0.098971
    16  H    0.110724
    17  H    0.114471
    18  H    0.131780
    19  H    0.127124
 Sum of Mulliken charges =   0.00000

 Dipole moment (field-independent basis, Debye):
    X=              4.2345    Y=              1.4695    Z=              1.0942  Tot=              4.6139
 Quadrupole moment (field-independent basis, Debye-Ang):
   XX=            -65.6020   YY=            -54.7041   ZZ=            -51.1714
   XY=             -3.7805   XZ=             -2.5273   YZ=              0.7183

  Exact polarizability:  96.363   5.561  71.973   0.164  -0.052  61.448
 Approx polarizability: 120.021  12.559 117.641   0.771  -2.381  96.312

                      1                      2                      3
                      A                      A                      A
 Frequencies --     74.5250                84.2113                99.3420
 Red. masses --      2.9561                 1.9855                 3.7674
 Frc consts  --      0.0097                 0.0083                 0.0219
 IR Inten    --      0.9102                 0.1771                 2.6102

                      4                      5                      6
                      A                      A                      A
 Frequencies --    183.7642               241.2096               274.3608
 Red. masses --      4.0226                 1.1670                 2.5424
 Frc consts  --      0.0800                 0.0400                 0.1128
 IR Inten    --      1.6531                 0.0944                 0.3467

                      7                      8                      9
                      A                      A                      A
 Frequencies --    318.3842               357.0566               490.0663
 Red. masses --      4.2784                 3.3546                 5.0777
 Frc consts  --      0.2555                 0.2520                 0.7185
 IR Inten    --      0.7145                 0.4114                 4.5183

                     10                     11                     12
                      A                      A                      A
 Frequencies --    534.4420               668.7710               742.9005
 Red. masses --      3.2165                 7.6041                 1.1392
 Frc consts  --      0.5413                 2.0038                 0.3704
 IR Inten    --      1.0045                 1.5726                 3.5477

                     13                     14                     15
                      A                      A                      A
 Frequencies --    785.8197               808.7616               846.2975
 Red. masses --      6.7139                 1.4699                 1.6972
 Frc consts  --      2.4427                 0.5665                 0.7162
 IR Inten    --     14.4511                 6.6133                 8.5174

                     16                     17                     18
                      A                      A                      A
 Frequencies --    876.0580               907.9620               911.8066
 Red. masses --      3.4445                 1.9755                 2.0863
 Frc consts  --      1.5575                 0.9596                 1.0219
 IR Inten    --     21.2461                15.4807                12.8313

                     19                     20                     21
                      A                      A                      A
 Frequencies --    943.6688               980.4128              1026.6006
 Red. masses --      2.5072                 1.8644                 3.0107
 Frc consts  --      1.3154                 1.0559                 1.8695
 IR Inten    --     35.0456                16.9190                44.8189

                     22                     23                     24
                      A                      A                      A
 Frequencies --   1047.8048              1067.1076              1084.5113
 Red. masses --      2.5708                 1.7513                 1.5202
 Frc consts  --      1.6629                 1.1750                 1.0534
 IR Inten    --     12.0395                 9.8180                 6.1297

                     25                     26                     27
                      A                      A                      A
 Frequencies --   1101.8493              1123.1945              1135.5509
 Red. masses --      1.9693                 2.0101                 1.7375
 Frc consts  --      1.4087                 1.4941                 1.3200
 IR Inten    --     18.0759                 2.9763                 9.8313

                     28                     29                     30
                      A                      A                      A
 Frequencies --   1199.1883              1241.3203              1257.0747
 Red. masses --      2.2106                 1.8962                 1.4029
 Frc consts  --      1.8730                 1.7215                 1.3061
 IR Inten    --      2.2627                25.6243                 6.0914

                     31                     32                     33
                      A                      A                      A
 Frequencies --   1283.5014              1316.3517              1329.1961
 Red. masses --      1.3471                 1.4557                 1.1156
 Frc consts  --      1.3075                 1.4862                 1.1613
 IR Inten    --     12.9399                 3.9728                 1.0417

                     34                     35                     36
                      A                      A                      A
 Frequencies --   1388.7687              1412.9759              1426.8050
 Red. masses --      1.5608                 1.2773                 2.1602
 Frc consts  --      1.7736                 1.5025                 2.5910
 IR Inten    --      3.4400                 1.0490                 2.1572

                     37                     38                     39
                      A                      A                      A
 Frequencies --   1481.2410              1492.6819              1499.5218
 Red. masses --      1.0768                 1.0601                 1.0405
 Frc consts  --      1.3919                 1.3916                 1.3784
 IR Inten    --      1.2528                 0.4607                 5.8640

                     40                     41                     42
                      A                      A                      A
 Frequencies --   1510.1163              1944.8624              3011.5247
 Red. masses --      1.0839                12.7482                 1.0586
 Frc consts  --      1.4564                28.4104                 5.6566
 IR Inten    --      3.7160               505.7870                 8.4306

                     43                     44                     45
                      A                      A                      A
 Frequencies --   3025.9917              3031.9311              3041.1740
 Red. masses --      1.0585                 1.0377                 1.0997
 Frc consts  --      5.7108                 5.6201                 5.9924
 IR Inten    --     22.1159                42.5834                 2.1552

                     46                     47                     48
                      A                      A                      A
 Frequencies --   3064.2163              3098.2515              3107.2023
 Red. masses --      1.1034                 1.1024                 1.1008
 Frc consts  --      6.1041                 6.2348                 6.2616
 IR Inten    --     19.6457                49.2932                30.2096

                     49                     50                     51
                      A                      A                      A
 Frequencies --   3135.9390              3220.3351              3232.3161
 Red. masses --      1.0888                 1.0909                 1.0999
 Frc consts  --      6.3085                 6.6653                 6.7708
 IR Inten    --     10.9490                 3.5649                 1.0321

 - Thermochemistry -
 -------------------
 Temperature   298.150 Kelvin.  Pressure   1.00000 Atm.
 Atom     1 has atomic number  6 and mass  12.00000

 Molecular mass:   126.06808 amu.
 Principal axes and moments of inertia in atomic units:
                           1         2         3
     Eigenvalues --   374.052312413.384422636.94711
           X            0.99995  -0.01021  -0.00167
           Y            0.01023   0.99982   0.01568
           Z            0.00151  -0.01570   0.99988
 This molecule is an asymmetric top.
 Rotational symmetry number  1.
 Rotational temperatures (Kelvin)      0.23156     0.03589     0.03285
 Rotational constants (GHZ):           4.82484     0.74781     0.68441
 Zero-point vibrational energy     415516.5 (Joules/Mol)
                                   99.31082 (Kcal/Mol)
 Warning -- explicit consideration of  10 degrees of freedom as
           vibrations may cause significant error
 Vibrational temperatures:    107.22   121.16   142.93   264.40   347.05
          (Kelvin)            394.74   458.08   513.72   705.10   768.94
                              962.21  1068.87  1130.62  1163.63  1217.63
                             1260.45  1306.35  1311.88  1357.73  1410.59
                             1477.05  1507.56  1535.33  1560.37  1585.31
                             1616.02  1633.80  1725.36  1785.98  1808.65
                             1846.67  1893.93  1912.41  1998.13  2032.95
                             2052.85  2131.17  2147.63  2157.47  2172.72
                             2798.22  4332.91  4353.72  4362.27  4375.57
                             4408.72  4457.69  4470.57  4511.91  4633.34
                             4650.58

 Zero-point correction=                           0.158262 (Hartree/Particle)
 Thermal correction to Energy=                    0.167104
 Thermal correction to Enthalpy=                  0.168048
 Thermal correction to Gibbs Free Energy=         0.123901
 Sum of electronic and zero-point Energies=           -423.029180
 Sum of electronic and thermal Energies=              -423.020338
 Sum of electronic and thermal Enthalpies=            -423.019393
 Sum of electronic and thermal Free Energies=         -423.063541

                     E (Thermal)             CV                S
                      KCal/Mol        Cal/Mol-Kelvin    Cal/Mol-Kelvin
 Total                  104.859             32.403             92.916
 Electronic               0.000              0.000              0.000
 Translational            0.889              2.981             40.409
 Rotational               0.889              2.981             29.255
 Vibrational            103.082             26.441             23.252
 Vibration     1          0.599              1.966              4.030
 Vibration     2          0.601              1.960              3.790
 Vibration     3          0.604              1.950              3.467
 Vibration     4          0.631              1.862              2.290
 Vibration     5          0.658              1.777              1.794
 Vibration     6          0.677              1.721              1.569
 Vibration     7          0.705              1.638              1.318
 Vibration     8          0.732              1.561              1.135
 Vibration     9          0.846              1.272              0.683
 Vibration    10          0.889              1.174              0.577

 Optimization completed.
    -- Stationary point found.
 Normal termination of Gaussian 09 at Tue Jan 28 14:49:05 2020.
