 Gaussian 09, Revision D.01,
 Gaussian 09:  ES64L-G09RevD.01 24-Apr-2013

 -----------------------------
 # b3lyp 6-31G(2df,p) opt Freq
 -----------------------------

 -----
 titel
 -----
 Symbolic Z-matrix:
 Charge =  0 Multiplicity = 1

 SCF Done:  E(RB3LYP) =  -423.174673135     A.U. after   14 cycles
 Optimization completed.
    -- Stationary point found.
 Normal termination of Gaussian 09 at Tue Jan 28 03:58:34 2020.

 ----------------------------------------------------------------------
 #N Geom=AllCheck Guess=TCheck SCRF=Check GenChk RB3LYP/6-31G(2df,p) Fr
 eq
 ----------------------------------------------------------------------

 Structure from the checkpoint file:  "/scratch/puck/g09_04ca347c-c4c6-4dac-a569-0d172179b286/Gau-95029.chk"
 -----
 titel
 -----
 Charge =  0 Multiplicity = 1

                         Standard orientation:
 ---------------------------------------------------------------------
 Center     Atomic      Atomic             Coordinates (Angstroms)
 Number     Number       Type             X           Y           Z
 ---------------------------------------------------------------------
      1          8           0       -2.702166    0.747476   -0.158780
      2          6           0       -1.465836    0.126387   -0.417791
      3          6           0       -1.254955   -1.348333    0.039462
      4          6           0        0.115243   -0.933082    0.612787
      5          8           0        1.118119   -1.190914   -0.354925
      6          6           0        2.264289   -0.369151   -0.214865
      7          6           0        1.934862    1.100084   -0.144460
      8          6           0        0.716848    1.526633    0.184339
      9          6           0       -0.342285    0.549301    0.572848
     10          1           0       -3.327991    0.474886   -0.837193
     11          1           0       -1.148270    0.273040   -1.457458
     12          1           0       -1.963211   -1.602403    0.832499
     13          1           0       -1.238193   -2.133834   -0.718597
     14          1           0        0.410474   -1.337827    1.590492
     15          1           0        2.855147   -0.671597    0.669492
     16          1           0        2.886340   -0.576820   -1.092905
     17          1           0        2.736070    1.794175   -0.383071
     18          1           0        0.477031    2.586698    0.196238
     19          1           0       -0.824011    0.830157    1.516225
 ---------------------------------------------------------------------

 SCF Done:  E(RB3LYP) =  -423.174673135     A.U. after    1 cycles

 The electronic state is 1-A.
 Alpha  occ. eigenvalues --  -19.13677 -19.13626 -10.22972 -10.22917 -10.22694
 Alpha  occ. eigenvalues --  -10.18290 -10.18045 -10.17951 -10.17467  -1.03304
 Alpha  occ. eigenvalues --   -1.01832  -0.83424  -0.78698  -0.69162  -0.65870
 Alpha  occ. eigenvalues --   -0.62108  -0.57422  -0.52764  -0.51053  -0.48797
 Alpha  occ. eigenvalues --   -0.47773  -0.45154  -0.44147  -0.40434  -0.39612
 Alpha  occ. eigenvalues --   -0.38239  -0.36699  -0.35473  -0.33883  -0.32168
 Alpha  occ. eigenvalues --   -0.28794  -0.27043  -0.24086  -0.23926
 Alpha virt. eigenvalues --    0.01887   0.07634   0.09624   0.11647   0.12719
 Alpha virt. eigenvalues --    0.13878   0.15304   0.16024   0.16434   0.17040
 Alpha virt. eigenvalues --    0.18706   0.19459   0.19769   0.20793   0.23072

 Mulliken charges:
               1
     1  O   -0.434050
     2  C    0.118162
     3  C   -0.289970
     4  C    0.094999
     5  O   -0.268975
     6  C   -0.122736
     7  C   -0.078432
     8  C   -0.090079
     9  C   -0.051763
    10  H    0.283505
    11  H    0.077877
    12  H    0.105872
    13  H    0.105062
    14  H    0.062022
    15  H    0.097152
    16  H    0.115027
    17  H    0.092429
    18  H    0.094643
    19  H    0.089256
 Sum of Mulliken charges =   0.00000

 Dipole moment (field-independent basis, Debye):
    X=              0.0124    Y=              0.0472    Z=             -0.3865  Tot=              0.3896
 Quadrupole moment (field-independent basis, Debye-Ang):
   XX=            -48.0466   YY=            -55.1574   ZZ=            -51.7291
   XY=              3.6154   XZ=              3.3367   YZ=             -1.3589

  Exact polarizability:  97.249   0.492  73.919  -3.207  -0.414  60.780
 Approx polarizability: 135.843  -5.860 105.615  -7.948   2.790  95.645

                      1                      2                      3
                      A                      A                      A
 Frequencies --     91.4615               190.9991               214.7164
 Red. masses --      3.2415                 3.1717                 2.1577
 Frc consts  --      0.0160                 0.0682                 0.0586
 IR Inten    --      0.9168                 8.2411                 1.5457

                      4                      5                      6
                      A                      A                      A
 Frequencies --    259.0054               291.9634               353.4175
 Red. masses --      1.2947                 3.0872                 4.5212
 Frc consts  --      0.0512                 0.1550                 0.3327
 IR Inten    --     94.8537                 7.4804                 2.3982

                      7                      8                      9
                      A                      A                      A
 Frequencies --    427.1214               479.6249               487.5284
 Red. masses --      2.5499                 2.1971                 5.3663
 Frc consts  --      0.2741                 0.2978                 0.7515
 IR Inten    --      6.7266                 2.7392                 1.6200

                     10                     11                     12
                      A                      A                      A
 Frequencies --    553.3488               699.0211               711.8272
 Red. masses --      3.7294                 3.9503                 1.4348
 Frc consts  --      0.6728                 1.1373                 0.4283
 IR Inten    --      2.7462                 0.5392                28.4665

                     13                     14                     15
                      A                      A                      A
 Frequencies --    807.5189               829.5134               870.2546
 Red. masses --      1.9456                 3.1071                 3.3968
 Frc consts  --      0.7475                 1.2597                 1.5157
 IR Inten    --      3.6978                 8.1190                14.9250

                     16                     17                     18
                      A                      A                      A
 Frequencies --    915.8975               927.4730               969.5870
 Red. masses --      2.3839                 2.6968                 2.4816
 Frc consts  --      1.1782                 1.3668                 1.3746
 IR Inten    --     12.2029                 2.2525                 6.3542

                     19                     20                     21
                      A                      A                      A
 Frequencies --    992.3283               996.8133              1045.2991
 Red. masses --      1.4670                 1.7380                 2.1353
 Frc consts  --      0.8511                 1.0175                 1.3746
 IR Inten    --     11.2851                15.6633                 5.0390

                     22                     23                     24
                      A                      A                      A
 Frequencies --   1054.2336              1088.0549              1112.3023
 Red. masses --      1.9679                 2.3469                 2.5059
 Frc consts  --      1.2886                 1.6370                 1.8267
 IR Inten    --     11.9706                28.6959                57.4591

                     25                     26                     27
                      A                      A                      A
 Frequencies --   1131.7485              1153.3338              1193.9522
 Red. masses --      3.0734                 1.5156                 1.2471
 Frc consts  --      2.3193                 1.1878                 1.0474
 IR Inten    --     97.7027                 8.5225                 8.7820

                     28                     29                     30
                      A                      A                      A
 Frequencies --   1210.2148              1225.8027              1260.2637
 Red. masses --      1.4397                 1.3866                 1.2927
 Frc consts  --      1.2424                 1.2276                 1.2097
 IR Inten    --     24.6213                 2.7685                29.6398

                     31                     32                     33
                      A                      A                      A
 Frequencies --   1265.6383              1278.9233              1318.6536
 Red. masses --      1.4125                 1.3429                 1.4123
 Frc consts  --      1.3331                 1.2941                 1.4469
 IR Inten    --     15.0497                 3.5953                42.0956

                     34                     35                     36
                      A                      A                      A
 Frequencies --   1344.3650              1359.5183              1401.9583
 Red. masses --      1.6555                 1.2444                 1.4123
 Frc consts  --      1.7629                 1.3551                 1.6355
 IR Inten    --     11.1739                 2.8043                 9.5264

                     37                     38                     39
                      A                      A                      A
 Frequencies --   1412.6499              1423.7158              1469.3524
 Red. masses --      1.6595                 1.4131                 1.1562
 Frc consts  --      1.9512                 1.6876                 1.4707
 IR Inten    --      5.1391                 8.8336                 2.4272

                     40                     41                     42
                      A                      A                      A
 Frequencies --   1488.3202              1715.2508              2936.2493
 Red. masses --      1.0901                 6.7094                 1.0727
 Frc consts  --      1.4227                11.6303                 5.4490
 IR Inten    --      1.6006                 1.9550                65.8482

                     43                     44                     45
                      A                      A                      A
 Frequencies --   3001.6691              3025.9654              3052.5524
 Red. masses --      1.0857                 1.0851                 1.0826
 Frc consts  --      5.7636                 5.8539                 5.9435
 IR Inten    --     72.9907                19.2753                25.4989

                     46                     47                     48
                      A                      A                      A
 Frequencies --   3056.8695              3067.9400              3131.3459
 Red. masses --      1.0872                 1.0596                 1.1086
 Frc consts  --      5.9859                 5.8762                 6.4045
 IR Inten    --     31.0376                28.8729                18.2746

                     49                     50                     51
                      A                      A                      A
 Frequencies --   3151.9865              3175.7764              3817.3266
 Red. masses --      1.0839                 1.0979                 1.0661
 Frc consts  --      6.3444                 6.5241                 9.1532
 IR Inten    --      6.6990                27.8599                23.6460

 - Thermochemistry -
 -------------------
 Temperature   298.150 Kelvin.  Pressure   1.00000 Atm.
 Atom     1 has atomic number  8 and mass  15.99491

 Molecular mass:   126.06808 amu.
 Principal axes and moments of inertia in atomic units:
                           1         2         3
     Eigenvalues --   562.108231299.425331683.41142
           X            0.99968   0.02506   0.00270
           Y           -0.02502   0.99960  -0.01336
           Z           -0.00303   0.01329   0.99991
 This molecule is an asymmetric top.
 Rotational symmetry number  1.
 Warning -- assumption of classical behavior for rotation
           may cause significant error
 Rotational temperatures (Kelvin)      0.15409     0.06666     0.05145
 Rotational constants (GHZ):           3.21066     1.38888     1.07207
 Zero-point vibrational energy     421328.7 (Joules/Mol)
                                  100.69997 (Kcal/Mol)
 Warning -- explicit consideration of  10 degrees of freedom as
           vibrations may cause significant error
 Vibrational temperatures:    131.59   274.80   308.93   372.65   420.07
          (Kelvin)            508.49   614.53   690.07   701.44   796.14
                             1005.73  1024.16  1161.84  1193.48  1252.10
                             1317.77  1334.43  1395.02  1427.74  1434.19
                             1503.95  1516.81  1565.47  1600.35  1628.33
                             1659.39  1717.83  1741.23  1763.65  1813.24
                             1820.97  1840.08  1897.25  1934.24  1956.04
                             2017.10  2032.49  2048.41  2114.07  2141.36
                             2467.86  4224.60  4318.73  4353.68  4391.94
                             4398.15  4414.08  4505.30  4535.00  4569.23
                             5492.27

 Zero-point correction=                           0.160476 (Hartree/Particle)
 Thermal correction to Energy=                    0.168325
 Thermal correction to Enthalpy=                  0.169269
 Thermal correction to Gibbs Free Energy=         0.128223
 Sum of electronic and zero-point Energies=           -423.014198
 Sum of electronic and thermal Energies=              -423.006349
 Sum of electronic and thermal Enthalpies=            -423.005404
 Sum of electronic and thermal Free Energies=         -423.046450

                     E (Thermal)             CV                S
                      KCal/Mol        Cal/Mol-Kelvin    Cal/Mol-Kelvin
 Total                  105.625             30.932             86.388
 Electronic               0.000              0.000              0.000
 Translational            0.889              2.981             40.409
 Rotational               0.889              2.981             28.599
 Vibrational            103.848             24.971             17.380
 Vibration     1          0.602              1.955              3.629
 Vibration     2          0.634              1.852              2.218
 Vibration     3          0.645              1.819              2.003
 Vibration     4          0.668              1.748              1.668
 Vibration     5          0.687              1.689              1.463
 Vibration     6          0.730              1.568              1.151
 Vibration     7          0.789              1.411              0.868
 Vibration     8          0.836              1.295              0.711
 Vibration     9          0.843              1.278              0.690
 Vibration    10          0.909              1.132              0.537

 Optimization completed.
    -- Stationary point found.
 Normal termination of Gaussian 09 at Tue Jan 28 04:45:24 2020.
