 Gaussian 09, Revision D.01,
 Gaussian 09:  ES64L-G09RevD.01 24-Apr-2013

 -----------------------------
 # b3lyp 6-31G(2df,p) opt Freq
 -----------------------------

 -----
 titel
 -----
 Symbolic Z-matrix:
 Charge =  0 Multiplicity = 1

 SCF Done:  E(RB3LYP) =  -423.131480675     A.U. after   14 cycles
 SCF Done:  E(RB3LYP) =  -423.131480565     A.U. after    8 cycles
 SCF Done:  E(RB3LYP) =  -423.131481012     A.U. after    8 cycles
 SCF Done:  E(RB3LYP) =  -423.131481053     A.U. after    7 cycles
 SCF Done:  E(RB3LYP) =  -423.131481127     A.U. after    7 cycles
 Optimization completed.
    -- Stationary point found.
 Normal termination of Gaussian 09 at Mon Jan 27 14:47:18 2020.

 ----------------------------------------------------------------------
 #N Geom=AllCheck Guess=TCheck SCRF=Check GenChk RB3LYP/6-31G(2df,p) Fr
 eq
 ----------------------------------------------------------------------

 Structure from the checkpoint file:  "/scratch/puck/g09_236561f0-326c-42ec-8878-b15a866e4437/Gau-4213.chk"
 -----
 titel
 -----
 Charge =  0 Multiplicity = 1

                         Standard orientation:
 ---------------------------------------------------------------------
 Center     Atomic      Atomic             Coordinates (Angstroms)
 Number     Number       Type             X           Y           Z
 ---------------------------------------------------------------------
      1          6           0        3.807217   -0.787752    0.129597
      2          6           0        2.472647   -0.239889   -0.061337
      3          6           0        1.367775    0.205379   -0.240574
      4          6           0        0.026276    0.766541   -0.383046
      5          8           0       -0.025605    2.151313   -0.036796
      6          6           0       -1.001964   -0.007263    0.456258
      7          6           0       -2.482400    0.341550    0.206113
      8          6           0       -2.605709   -1.136122   -0.217939
      9          8           0       -1.192194   -1.358514   -0.010891
     10          1           0        4.574091   -0.013894    0.014555
     11          1           0        3.921108   -1.225789    1.127133
     12          1           0        4.016587   -1.573641   -0.604209
     13          1           0       -0.290356    0.712371   -1.432152
     14          1           0        0.521714    2.269249    0.747136
     15          1           0       -0.690105    0.013865    1.510124
     16          1           0       -3.056076    0.635321    1.085439
     17          1           0       -2.641802    1.075127   -0.585836
     18          1           0       -3.215346   -1.765497    0.441920
     19          1           0       -2.900478   -1.324170   -1.257040
 ---------------------------------------------------------------------

 SCF Done:  E(RB3LYP) =  -423.131481127     A.U. after    1 cycles

 The electronic state is 1-A.
 Alpha  occ. eigenvalues --  -19.14212 -19.12920 -10.24959 -10.23272 -10.22871
 Alpha  occ. eigenvalues --  -10.20588 -10.18587 -10.18031 -10.16865  -1.03740
 Alpha  occ. eigenvalues --   -1.02136  -0.78389  -0.75509  -0.73543  -0.69022
 Alpha  occ. eigenvalues --   -0.64275  -0.55943  -0.53242  -0.49912  -0.48442
 Alpha  occ. eigenvalues --   -0.45888  -0.44935  -0.43236  -0.42860  -0.42640
 Alpha  occ. eigenvalues --   -0.40341  -0.37245  -0.35736  -0.32990  -0.30315
 Alpha  occ. eigenvalues --   -0.29127  -0.25844  -0.25687  -0.23700
 Alpha virt. eigenvalues --    0.03337   0.05006   0.09683   0.10096   0.10826
 Alpha virt. eigenvalues --    0.11146   0.12220   0.13822   0.15737   0.17497
 Alpha virt. eigenvalues --    0.17971   0.18113   0.18512   0.21506   0.22510

 Mulliken charges:
               1
     1  C   -0.499972
     2  C    0.090438
     3  C    0.038307
     4  C   -0.076004
     5  O   -0.421498
     6  C    0.153823
     7  C   -0.295899
     8  C   -0.061828
     9  O   -0.288598
    10  H    0.150332
    11  H    0.150119
    12  H    0.155261
    13  H    0.111313
    14  H    0.285703
    15  H    0.070566
    16  H    0.110101
    17  H    0.120463
    18  H    0.102345
    19  H    0.105029
 Sum of Mulliken charges =   0.00000

 Dipole moment (field-independent basis, Debye):
    X=              0.3668    Y=              0.1013    Z=              1.0421  Tot=              1.1094
 Quadrupole moment (field-independent basis, Debye-Ang):
   XX=            -41.2064   YY=            -57.7466   ZZ=            -50.8109
   XY=             -0.6109   XZ=              1.6308   YZ=              2.3580

  Exact polarizability: 110.718  -7.000  70.651   4.217   1.196  61.850
 Approx polarizability: 144.363 -17.386 103.909   9.312   0.583  93.215

 ******    1 imaginary frequencies (negative Signs) ******

                      1                      2                      3
                      A                      A                      A
 Frequencies --     -8.0197                56.7401                77.7167
 Red. masses --      1.0218                 4.0167                 3.0270
 Frc consts  --      0.0000                 0.0076                 0.0108
 IR Inten    --      0.0276                 2.7047                 3.6007

                      4                      5                      6
                      A                      A                      A
 Frequencies --     92.0241               143.3118               199.0916
 Red. masses --      2.5021                 4.0382                 4.6933
 Frc consts  --      0.0125                 0.0489                 0.1096
 IR Inten    --      0.6316                 0.0620                 0.1613

                      7                      8                      9
                      A                      A                      A
 Frequencies --    255.3817               301.7740               322.7930
 Red. masses --      1.1251                 3.8318                 3.7043
 Frc consts  --      0.0432                 0.2056                 0.2274
 IR Inten    --     85.1532                19.7747                 7.3973

                     10                     11                     12
                      A                      A                      A
 Frequencies --    366.3498               424.1192               482.7733
 Red. masses --      3.1947                 6.5396                 5.0500
 Frc consts  --      0.2526                 0.6931                 0.6935
 IR Inten    --     16.8674                 1.4272                 3.6764

                     13                     14                     15
                      A                      A                      A
 Frequencies --    573.4097               769.5955               792.1442
 Red. masses --      6.3988                 1.3892                 2.7585
 Frc consts  --      1.2396                 0.4848                 1.0198
 IR Inten    --      7.3461                 4.8870                12.1990

                     16                     17                     18
                      A                      A                      A
 Frequencies --    830.5540               897.7008               948.3703
 Red. masses --      2.5762                 2.2640                 2.7306
 Frc consts  --      1.0470                 1.0749                 1.4470
 IR Inten    --      8.8706                11.4983                13.4564

                     19                     20                     21
                      A                      A                      A
 Frequencies --   1003.4917              1030.6033              1039.1475
 Red. masses --      3.5923                 4.3236                 8.6958
 Frc consts  --      2.1314                 2.7057                 5.5324
 IR Inten    --     24.6251                82.0452               149.7169

                     22                     23                     24
                      A                      A                      A
 Frequencies --   1051.2625              1054.1764              1087.1332
 Red. masses --      1.4217                 1.4006                 2.7606
 Frc consts  --      0.9257                 0.9171                 1.9223
 IR Inten    --      0.2310                 0.8799                 0.6140

                     25                     26                     27
                      A                      A                      A
 Frequencies --   1131.7752              1164.7654              1173.8859
 Red. masses --      2.5663                 1.2052                 3.1673
 Frc consts  --      1.9368                 0.9633                 2.5716
 IR Inten    --      1.8931                 0.6623                 6.3442

                     28                     29                     30
                      A                      A                      A
 Frequencies --   1209.7550              1244.5809              1254.7590
 Red. masses --      1.2592                 1.2237                 1.4823
 Frc consts  --      1.0858                 1.1168                 1.3750
 IR Inten    --      1.2931                10.8058                 5.0225

                     31                     32                     33
                      A                      A                      A
 Frequencies --   1277.5515              1300.2058              1358.9537
 Red. masses --      1.3187                 1.3137                 1.4144
 Frc consts  --      1.2681                 1.3085                 1.5389
 IR Inten    --      3.9042                20.3370                 3.6845

                     34                     35                     36
                      A                      A                      A
 Frequencies --   1381.0807              1412.8802              1417.2379
 Red. masses --      1.2668                 1.3159                 1.3207
 Frc consts  --      1.4236                 1.5477                 1.5630
 IR Inten    --     24.3127                25.8628                45.3799

                     37                     38                     39
                      A                      A                      A
 Frequencies --   1476.0481              1478.0042              1492.5318
 Red. masses --      1.0395                 1.0397                 1.1032
 Frc consts  --      1.3343                 1.3381                 1.4480
 IR Inten    --      6.2059                 5.3417                 4.3305

                     40                     41                     42
                      A                      A                      A
 Frequencies --   1532.4609              2366.8271              3000.0977
 Red. masses --      1.1102                11.8690                 1.0824
 Frc consts  --      1.5361                39.1738                 5.7397
 IR Inten    --      1.1677                16.4348                50.2541

                     43                     44                     45
                      A                      A                      A
 Frequencies --   3018.8716              3028.9999              3036.9806
 Red. masses --      1.0571                 1.0347                 1.0848
 Frc consts  --      5.6760                 5.5934                 5.8950
 IR Inten    --     80.1253                27.3041                35.4113

                     46                     47                     48
                      A                      A                      A
 Frequencies --   3058.2600              3086.2769              3090.3766
 Red. masses --      1.1110                 1.0598                 1.1003
 Frc consts  --      6.1223                 5.9474                 6.1915
 IR Inten    --     37.3137                21.6583                 9.4443

                     49                     50                     51
                      A                      A                      A
 Frequencies --   3092.0538              3140.7069              3812.4511
 Red. masses --      1.1001                 1.1086                 1.0662
 Frc consts  --      6.1968                 6.4428                 9.1307
 IR Inten    --      8.1686                21.7699                24.4861

 - Thermochemistry -
 -------------------
 Temperature   298.150 Kelvin.  Pressure   1.00000 Atm.
 Atom     1 has atomic number  6 and mass  12.00000

 Molecular mass:   126.06808 amu.
 Principal axes and moments of inertia in atomic units:
                           1         2         3
     Eigenvalues --   601.442142018.590792504.51440
           X            0.99990  -0.01376   0.00416
           Y            0.01372   0.99987   0.00857
           Z           -0.00428  -0.00851   0.99995
 This molecule is an asymmetric top.
 Rotational symmetry number  1.
 Warning -- assumption of classical behavior for rotation
           may cause significant error
 Rotational temperatures (Kelvin)      0.14401     0.04291     0.03458
 Rotational constants (GHZ):           3.00069     0.89406     0.72060
    1 imaginary frequencies ignored.
 Zero-point vibrational energy     411742.9 (Joules/Mol)
                                   98.40892 (Kcal/Mol)
 Warning -- explicit consideration of  12 degrees of freedom as
           vibrations may cause significant error
 Vibrational temperatures:     81.64   111.82   132.40   206.19   286.45
          (Kelvin)            367.44   434.18   464.43   527.10   610.21
                              694.60   825.01  1107.27  1139.72  1194.98
                             1291.59  1364.49  1443.80  1482.81  1495.10
                             1512.53  1516.72  1564.14  1628.37  1675.84
                             1688.96  1740.57  1790.67  1805.32  1838.11
                             1870.70  1955.23  1987.06  2032.82  2039.09
                             2123.70  2126.52  2147.42  2204.87  3405.33
                             4316.47  4343.48  4358.05  4369.53  4400.15
                             4440.46  4446.36  4448.77  4518.77  5485.26

 Zero-point correction=                           0.156825 (Hartree/Particle)
 Thermal correction to Energy=                    0.166258
 Thermal correction to Enthalpy=                  0.167202
 Thermal correction to Gibbs Free Energy=         0.121445
 Sum of electronic and zero-point Energies=           -422.974657
 Sum of electronic and thermal Energies=              -422.965223
 Sum of electronic and thermal Enthalpies=            -422.964279
 Sum of electronic and thermal Free Energies=         -423.010036

                     E (Thermal)             CV                S
                      KCal/Mol        Cal/Mol-Kelvin    Cal/Mol-Kelvin
 Total                  104.328             33.203             96.304
 Electronic               0.000              0.000              0.000
 Translational            0.889              2.981             40.409
 Rotational               0.889              2.981             29.499
 Vibrational            102.551             27.241             26.397
 Vibration     1          0.596              1.975              4.567
 Vibration     2          0.599              1.964              3.948
 Vibration     3          0.602              1.955              3.617
 Vibration     4          0.616              1.910              2.759
 Vibration     5          0.637              1.841              2.141
 Vibration     6          0.666              1.754              1.693
 Vibration     7          0.694              1.670              1.407
 Vibration     8          0.708              1.630              1.296
 Vibration     9          0.739              1.541              1.095
 Vibration    10          0.786              1.418              0.878
 Vibration    11          0.839              1.288              0.703
 Vibration    12          0.930              1.089              0.498

 Normal termination of Gaussian 09 at Mon Jan 27 16:19:32 2020.
