 Gaussian 09, Revision D.01,
 Gaussian 09:  ES64L-G09RevD.01 24-Apr-2013

 -----------------------------
 # b3lyp 6-31G(2df,p) opt Freq
 -----------------------------

 -----
 titel
 -----
 Symbolic Z-matrix:
 Charge =  0 Multiplicity = 1

 SCF Done:  E(RB3LYP) =  -423.202401919     A.U. after   14 cycles
 Optimization completed.
    -- Stationary point found.
 Normal termination of Gaussian 09 at Mon Jan 27 16:34:43 2020.

 ----------------------------------------------------------------------
 #N Geom=AllCheck Guess=TCheck SCRF=Check GenChk RB3LYP/6-31G(2df,p) Fr
 eq
 ----------------------------------------------------------------------

 Structure from the checkpoint file:  "/scratch/puck/g09_17da0f18-82a8-4f4d-b29c-ad831249bad5/Gau-70411.chk"
 -----
 titel
 -----
 Charge =  0 Multiplicity = 1

                         Standard orientation:
 ---------------------------------------------------------------------
 Center     Atomic      Atomic             Coordinates (Angstroms)
 Number     Number       Type             X           Y           Z
 ---------------------------------------------------------------------
      1          6           0        0.292737    1.586063   -0.693180
      2          6           0       -0.034507    0.313427    0.093070
      3          6           0        1.203976   -0.237987    0.817699
      4          6           0        2.313676   -0.643267   -0.129102
      5          8           0        3.445384   -0.235933   -0.079176
      6          6           0       -1.290366    0.503334    1.013450
      7          6           0       -2.104682   -0.305564   -0.006720
      8          8           0       -3.273613   -0.490887   -0.175158
      9          6           0       -0.839405   -0.726722   -0.768921
     10          1           0        1.041680    1.397993   -1.469823
     11          1           0       -0.601180    1.985342   -1.183944
     12          1           0        0.687876    2.363905   -0.031163
     13          1           0        1.606043    0.494796    1.524623
     14          1           0        0.917048   -1.135303    1.385520
     15          1           0        2.007046   -1.377377   -0.911095
     16          1           0       -1.217047   -0.020501    1.973066
     17          1           0       -1.625789    1.526730    1.202058
     18          1           0       -0.582496   -1.771259   -0.559490
     19          1           0       -0.855927   -0.585467   -1.852857
 ---------------------------------------------------------------------

 SCF Done:  E(RB3LYP) =  -423.202401919     A.U. after    1 cycles

 The electronic state is 1-A.
 Alpha  occ. eigenvalues --  -19.14753 -19.14453 -10.27965 -10.27915 -10.22658
 Alpha  occ. eigenvalues --  -10.20520 -10.20218 -10.20091 -10.19358  -1.05419
 Alpha  occ. eigenvalues --   -1.05368  -0.87409  -0.76883  -0.72196  -0.69590
 Alpha  occ. eigenvalues --   -0.60172  -0.56347  -0.53984  -0.49928  -0.48016
 Alpha  occ. eigenvalues --   -0.46679  -0.46461  -0.43614  -0.43053  -0.42498
 Alpha  occ. eigenvalues --   -0.40485  -0.39826  -0.39195  -0.36775  -0.34742
 Alpha  occ. eigenvalues --   -0.34209  -0.33176  -0.25740  -0.25078
 Alpha virt. eigenvalues --   -0.03417  -0.02516   0.06785   0.10742   0.10921
 Alpha virt. eigenvalues --    0.11887   0.12266   0.13288   0.14346   0.15330
 Alpha virt. eigenvalues --    0.15855   0.16822   0.17920   0.19186   0.21351

 Mulliken charges:
               1
     1  C   -0.448583
     2  C    0.308200
     3  C   -0.340648
     4  C    0.162190
     5  O   -0.238517
     6  C   -0.394884
     7  C    0.412573
     8  O   -0.285016
     9  C   -0.394140
    10  H    0.130646
    11  H    0.123023
    12  H    0.127917
    13  H    0.123889
    14  H    0.114489
    15  H    0.076488
    16  H    0.129540
    17  H    0.131870
    18  H    0.128016
    19  H    0.132947
 Sum of Mulliken charges =   0.00000

 Dipole moment (field-independent basis, Debye):
    X=              0.1061    Y=              0.0844    Z=              0.5617  Tot=              0.5778
 Quadrupole moment (field-independent basis, Debye-Ang):
   XX=            -78.9580   YY=            -50.4288   ZZ=            -50.7498
   XY=             -3.0560   XZ=             -0.7669   YZ=             -0.3492

  Exact polarizability:  92.889   2.273  68.090  -0.887   4.213  68.538
 Approx polarizability: 134.569   7.114 101.155   0.789   6.793 102.807

                      1                      2                      3
                      A                      A                      A
 Frequencies --     42.1705                58.9054                79.6489
 Red. masses --      5.5296                 3.8286                 4.0118
 Frc consts  --      0.0058                 0.0078                 0.0150
 IR Inten    --     11.1962                 1.5325                 4.6953

                      4                      5                      6
                      A                      A                      A
 Frequencies --    192.2844               248.7090               305.0520
 Red. masses --      2.4087                 1.0596                 3.8882
 Frc consts  --      0.0525                 0.0386                 0.2132
 IR Inten    --      1.7567                 0.1521                 0.4081

                      7                      8                      9
                      A                      A                      A
 Frequencies --    311.5471               349.2818               384.8328
 Red. masses --      2.1174                 2.5843                 3.4554
 Frc consts  --      0.1211                 0.1858                 0.3015
 IR Inten    --      0.4145                 0.7301                 0.9532

                     10                     11                     12
                      A                      A                      A
 Frequencies --    417.1391               478.2719               514.6638
 Red. masses --      1.6931                 2.5040                 3.0001
 Frc consts  --      0.1736                 0.3375                 0.4682
 IR Inten    --      0.7686                 4.7643                 8.9566

                     13                     14                     15
                      A                      A                      A
 Frequencies --    633.1817               683.0668               727.8457
 Red. masses --      3.3852                 1.4414                 2.7455
 Frc consts  --      0.7996                 0.3963                 0.8569
 IR Inten    --      2.6816                 0.0228                 0.8030

                     16                     17                     18
                      A                      A                      A
 Frequencies --    816.8681               874.3256               881.7044
 Red. masses --      1.7177                 2.6264                 2.8253
 Frc consts  --      0.6753                 1.1829                 1.2941
 IR Inten    --      0.5113                 7.7037                 4.7405

                     19                     20                     21
                      A                      A                      A
 Frequencies --    933.4151               964.8087               999.7569
 Red. masses --      2.4731                 1.5145                 1.4147
 Frc consts  --      1.2695                 0.8306                 0.8331
 IR Inten    --      3.4385                 0.2394                 8.9826

                     22                     23                     24
                      A                      A                      A
 Frequencies --   1007.3109              1069.4713              1079.9595
 Red. masses --      1.6218                 3.2765                 2.0481
 Frc consts  --      0.9696                 2.2080                 1.4074
 IR Inten    --      2.4688                 7.8245                38.9017

                     25                     26                     27
                      A                      A                      A
 Frequencies --   1132.0219              1161.9842              1170.3279
 Red. masses --      1.9275                 1.9960                 1.7712
 Frc consts  --      1.4553                 1.5878                 1.4293
 IR Inten    --      2.3975                27.8630                 0.7876

                     28                     29                     30
                      A                      A                      A
 Frequencies --   1198.6865              1218.9614              1276.7225
 Red. masses --      1.4437                 1.6156                 2.0259
 Frc consts  --      1.2222                 1.4144                 1.9457
 IR Inten    --     10.1644                 3.5663                22.7193

                     31                     32                     33
                      A                      A                      A
 Frequencies --   1309.4014              1315.5110              1415.7599
 Red. masses --      1.9242                 1.7524                 1.2238
 Frc consts  --      1.9437                 1.7868                 1.4452
 IR Inten    --      3.6414                 6.7535                 5.2332

                     34                     35                     36
                      A                      A                      A
 Frequencies --   1426.3941              1431.4232              1445.1757
 Red. masses --      1.0867                 1.1955                 1.1140
 Frc consts  --      1.3026                 1.4433                 1.3708
 IR Inten    --     19.8968                 3.3093                 0.0374

                     37                     38                     39
                      A                      A                      A
 Frequencies --   1462.6342              1494.4830              1495.7292
 Red. masses --      1.0951                 1.0529                 1.0510
 Frc consts  --      1.3803                 1.3856                 1.3853
 IR Inten    --      4.0716                 2.3013                 2.9287

                     40                     41                     42
                      A                      A                      A
 Frequencies --   1834.0305              1897.3412              2853.9385
 Red. masses --     10.1099                12.6628                 1.0813
 Frc consts  --     20.0360                26.8577                 5.1892
 IR Inten    --    171.7238               288.1134                90.1301

                     43                     44                     45
                      A                      A                      A
 Frequencies --   3006.6573              3028.6314              3046.4857
 Red. masses --      1.0647                 1.0353                 1.0597
 Frc consts  --      5.6706                 5.5951                 5.7946
 IR Inten    --     12.2402                14.9865                 9.1208

                     46                     47                     48
                      A                      A                      A
 Frequencies --   3051.6122              3087.5464              3098.1346
 Red. masses --      1.0617                 1.0966                 1.1018
 Frc consts  --      5.8251                 6.1594                 6.2311
 IR Inten    --      4.9904                 9.9272                17.7569

                     49                     50                     51
                      A                      A                      A
 Frequencies --   3100.6482              3108.6982              3109.4737
 Red. masses --      1.1017                 1.1040                 1.1028
 Frc consts  --      6.2407                 6.2858                 6.2823
 IR Inten    --     19.0695                15.9462                 4.8660

 - Thermochemistry -
 -------------------
 Temperature   298.150 Kelvin.  Pressure   1.00000 Atm.
 Atom     1 has atomic number  6 and mass  12.00000

 Molecular mass:   126.06808 amu.
 Principal axes and moments of inertia in atomic units:
                           1         2         3
     Eigenvalues --   446.491302114.723362190.11168
           X            0.99999  -0.00429  -0.00280
           Y            0.00427   0.99996  -0.00772
           Z            0.00283   0.00771   0.99997
 This molecule is an asymmetric top.
 Rotational symmetry number  1.
 Warning -- assumption of classical behavior for rotation
           may cause significant error
 Rotational temperatures (Kelvin)      0.19399     0.04096     0.03955
 Rotational constants (GHZ):           4.04205     0.85342     0.82404
 Zero-point vibrational energy     408121.8 (Joules/Mol)
                                   97.54345 (Kcal/Mol)
 Warning -- explicit consideration of  12 degrees of freedom as
           vibrations may cause significant error
 Vibrational temperatures:     60.67    84.75   114.60   276.65   357.84
          (Kelvin)            438.90   448.25   502.54   553.69   600.17
                              688.13   740.49   911.01   982.78  1047.21
                             1175.29  1257.96  1268.57  1342.97  1388.14
                             1438.43  1449.29  1538.73  1553.82  1628.73
                             1671.83  1683.84  1724.64  1753.81  1836.92
                             1883.93  1892.72  2036.96  2052.26  2059.50
                             2079.28  2104.40  2150.23  2152.02  2638.76
                             2729.85  4106.18  4325.90  4357.52  4383.21
                             4390.58  4442.29  4457.52  4461.14  4472.72
                             4473.83

 Zero-point correction=                           0.155445 (Hartree/Particle)
 Thermal correction to Energy=                    0.164978
 Thermal correction to Enthalpy=                  0.165922
 Thermal correction to Gibbs Free Energy=         0.119998
 Sum of electronic and zero-point Energies=           -423.046957
 Sum of electronic and thermal Energies=              -423.037424
 Sum of electronic and thermal Enthalpies=            -423.036480
 Sum of electronic and thermal Free Energies=         -423.082404

                     E (Thermal)             CV                S
                      KCal/Mol        Cal/Mol-Kelvin    Cal/Mol-Kelvin
 Total                  103.525             34.563             96.656
 Electronic               0.000              0.000              0.000
 Translational            0.889              2.981             40.409
 Rotational               0.889              2.981             29.116
 Vibrational            101.748             28.602             27.131
 Vibration     1          0.595              1.980              5.154
 Vibration     2          0.596              1.974              4.494
 Vibration     3          0.600              1.963              3.900
 Vibration     4          0.634              1.851              2.206
 Vibration     5          0.662              1.765              1.740
 Vibration     6          0.696              1.664              1.389
 Vibration     7          0.700              1.652              1.354
 Vibration     8          0.727              1.577              1.169
 Vibration     9          0.754              1.503              1.020
 Vibration    10          0.780              1.433              0.902
 Vibration    11          0.835              1.298              0.715
 Vibration    12          0.870              1.218              0.622

 Optimization completed.
    -- Stationary point found.
 Normal termination of Gaussian 09 at Mon Jan 27 17:23:50 2020.
