 Gaussian 09, Revision D.01,
 Gaussian 09:  ES64L-G09RevD.01 24-Apr-2013

 -----------------------------
 # b3lyp 6-31G(2df,p) opt Freq
 -----------------------------

 -----
 titel
 -----
 Symbolic Z-matrix:
 Charge =  0 Multiplicity = 1

 SCF Done:  E(RB3LYP) =  -423.184110090     A.U. after   13 cycles
 Optimization completed.
    -- Stationary point found.
 Normal termination of Gaussian 09 at Mon Jan 27 12:23:21 2020.

 ----------------------------------------------------------------------
 #N Geom=AllCheck Guess=TCheck SCRF=Check GenChk RB3LYP/6-31G(2df,p) Fr
 eq
 ----------------------------------------------------------------------

 Structure from the checkpoint file:  "/scratch/puck/g09_5a4db5e4-3e0c-41f3-a41a-f144e39bb83f/Gau-52512.chk"
 -----
 titel
 -----
 Charge =  0 Multiplicity = 1

                         Standard orientation:
 ---------------------------------------------------------------------
 Center     Atomic      Atomic             Coordinates (Angstroms)
 Number     Number       Type             X           Y           Z
 ---------------------------------------------------------------------
      1          6           0       -1.397949   -0.541058   -0.881753
      2          8           0       -0.960012    0.803091   -1.067582
      3          6           0       -0.445952    1.335617    0.175816
      4          6           0       -0.923246    0.345972    1.251068
      5          6           0       -0.865074   -0.984138    0.483007
      6          8           0        0.435606   -1.558221    0.470440
      7          6           0        1.442827   -1.010890   -0.370614
      8          6           0        1.871990    0.417879   -0.113779
      9          6           0        1.062725    1.448530    0.122663
     10          1           0       -2.497057   -0.587612   -0.886250
     11          1           0       -1.028894   -1.162423   -1.705046
     12          1           0       -0.886322    2.329008    0.304308
     13          1           0       -0.298460    0.337405    2.144356
     14          1           0       -1.958683    0.560194    1.537279
     15          1           0       -1.497985   -1.753031    0.933560
     16          1           0        2.298471   -1.674919   -0.217068
     17          1           0        1.159600   -1.107268   -1.431527
     18          1           0        2.943804    0.591923   -0.178157
     19          1           0        1.488852    2.436296    0.277237
 ---------------------------------------------------------------------

 SCF Done:  E(RB3LYP) =  -423.184110090     A.U. after    1 cycles

 The electronic state is 1-A.
 Alpha  occ. eigenvalues --  -19.13836 -19.13269 -10.23535 -10.23341 -10.23180
 Alpha  occ. eigenvalues --  -10.22461 -10.18354 -10.18320 -10.17995  -1.03986
 Alpha  occ. eigenvalues --   -1.01474  -0.79793  -0.78345  -0.72498  -0.68096
 Alpha  occ. eigenvalues --   -0.61405  -0.58049  -0.52383  -0.51388  -0.50479
 Alpha  occ. eigenvalues --   -0.46575  -0.46082  -0.43352  -0.42101  -0.40869
 Alpha  occ. eigenvalues --   -0.38429  -0.37174  -0.36365  -0.34208  -0.33316
 Alpha  occ. eigenvalues --   -0.29853  -0.26368  -0.25220  -0.23496
 Alpha virt. eigenvalues --    0.00366   0.07732   0.10497   0.11452   0.13200
 Alpha virt. eigenvalues --    0.13646   0.15438   0.16189   0.17282   0.17924
 Alpha virt. eigenvalues --    0.18493   0.18814   0.19645   0.20674   0.22252

 Mulliken charges:
               1
     1  C   -0.105239
     2  O   -0.281181
     3  C    0.057559
     4  C   -0.250202
     5  C    0.107895
     6  O   -0.274615
     7  C   -0.126372
     8  C   -0.068734
     9  C   -0.054786
    10  H    0.094539
    11  H    0.110865
    12  H    0.075876
    13  H    0.115327
    14  H    0.101370
    15  H    0.085848
    16  H    0.113948
    17  H    0.115007
    18  H    0.094124
    19  H    0.088772
 Sum of Mulliken charges =   0.00000

 Dipole moment (field-independent basis, Debye):
    X=             -0.0903    Y=              0.1250    Z=              0.6034  Tot=              0.6228
 Quadrupole moment (field-independent basis, Debye-Ang):
   XX=            -48.9343   YY=            -53.7509   ZZ=            -55.0251
   XY=              1.7152   XZ=             -2.4880   YZ=              4.0165

  Exact polarizability:  84.953  -1.228  78.287  -3.139   5.497  61.612
 Approx polarizability: 118.997  -8.930 119.643  -4.110   6.596  94.705

                      1                      2                      3
                      A                      A                      A
 Frequencies --     99.8488               215.5741               262.2183
 Red. masses --      3.1110                 3.4476                 2.7797
 Frc consts  --      0.0183                 0.0944                 0.1126
 IR Inten    --      4.9629                 4.2268                 0.9881

                      4                      5                      6
                      A                      A                      A
 Frequencies --    321.6487               382.4657               421.2913
 Red. masses --      3.1269                 3.4929                 2.8784
 Frc consts  --      0.1906                 0.3010                 0.3010
 IR Inten    --      1.1841                 2.9044                 3.6819

                      7                      8                      9
                      A                      A                      A
 Frequencies --    455.4933               560.6618               673.1081
 Red. masses --      1.9155                 3.8598                 1.8818
 Frc consts  --      0.2342                 0.7149                 0.5023
 IR Inten    --      1.8638                 2.3340                 4.5938

                     10                     11                     12
                      A                      A                      A
 Frequencies --    709.6241               766.8578               807.5806
 Red. masses --      3.2817                 4.0760                 3.6871
 Frc consts  --      0.9736                 1.4123                 1.4168
 IR Inten    --      9.5389                17.3930                 3.9322

                     13                     14                     15
                      A                      A                      A
 Frequencies --    831.8412               846.1812               883.1899
 Red. masses --      2.8098                 3.7716                 2.4587
 Frc consts  --      1.1455                 1.5911                 1.1300
 IR Inten    --      1.4284                17.5057                 3.9926

                     16                     17                     18
                      A                      A                      A
 Frequencies --    911.5598               937.1645               966.3983
 Red. masses --      2.9096                 2.5619                 2.1488
 Frc consts  --      1.4245                 1.3257                 1.1824
 IR Inten    --     13.6548                14.2856                13.9836

                     19                     20                     21
                      A                      A                      A
 Frequencies --    988.1241              1011.6528              1034.5170
 Red. masses --      1.3576                 2.3070                 2.1970
 Frc consts  --      0.7810                 1.3911                 1.3853
 IR Inten    --      5.0177                 3.1394                28.9319

                     22                     23                     24
                      A                      A                      A
 Frequencies --   1045.4020              1079.3780              1095.2320
 Red. masses --      2.1486                 2.0679                 3.1611
 Frc consts  --      1.3835                 1.4195                 2.2341
 IR Inten    --     22.5830                11.2079                72.6089

                     25                     26                     27
                      A                      A                      A
 Frequencies --   1144.4523              1186.9325              1218.4092
 Red. masses --      2.0587                 1.3992                 1.4155
 Frc consts  --      1.5887                 1.1614                 1.2381
 IR Inten    --     89.0340                 8.3900                 9.2716

                     28                     29                     30
                      A                      A                      A
 Frequencies --   1240.9463              1259.1662              1298.4635
 Red. masses --      1.2279                 1.4957                 1.1279
 Frc consts  --      1.1141                 1.3972                 1.1204
 IR Inten    --      8.4340                19.3627                 5.7841

                     31                     32                     33
                      A                      A                      A
 Frequencies --   1318.1416              1322.3859              1370.2318
 Red. masses --      1.3500                 1.4765                 1.2937
 Frc consts  --      1.3820                 1.5213                 1.4311
 IR Inten    --      2.7610                 2.4350                 6.7781

                     34                     35                     36
                      A                      A                      A
 Frequencies --   1385.8082              1392.0981              1408.9171
 Red. masses --      1.3188                 1.2658                 1.3077
 Frc consts  --      1.4922                 1.4452                 1.5294
 IR Inten    --      2.6797                 3.1324                 4.3359

                     37                     38                     39
                      A                      A                      A
 Frequencies --   1415.0815              1474.5555              1482.5874
 Red. masses --      1.5179                 1.1018                 1.0850
 Frc consts  --      1.7908                 1.4114                 1.4052
 IR Inten    --      3.9529                 4.3147                 5.2814

                     40                     41                     42
                      A                      A                      A
 Frequencies --   1520.7187              1721.8318              2972.0864
 Red. masses --      1.0865                 6.7366                 1.0711
 Frc consts  --      1.4804                11.7672                 5.5743
 IR Inten    --      1.3462                 0.4808                34.8307

                     43                     44                     45
                      A                      A                      A
 Frequencies --   2992.5612              3046.7038              3060.3593
 Red. masses --      1.0690                 1.0728                 1.0810
 Frc consts  --      5.6404                 5.8672                 5.9652
 IR Inten    --     64.4391                10.9541                62.5766

                     46                     47                     48
                      A                      A                      A
 Frequencies --   3062.9671              3078.3442              3083.4816
 Red. masses --      1.0946                 1.0886                 1.0880
 Frc consts  --      6.0507                 6.0778                 6.0950
 IR Inten    --     23.9181                34.4606                40.2669

                     49                     50                     51
                      A                      A                      A
 Frequencies --   3135.3010              3143.6984              3168.7777
 Red. masses --      1.0989                 1.0840                 1.0966
 Frc consts  --      6.3645                 6.3121                 6.4874
 IR Inten    --     11.6236                 8.5189                30.4420

 - Thermochemistry -
 -------------------
 Temperature   298.150 Kelvin.  Pressure   1.00000 Atm.
 Atom     1 has atomic number  6 and mass  12.00000

 Molecular mass:   126.06808 amu.
 Principal axes and moments of inertia in atomic units:
                           1         2         3
     Eigenvalues --   772.77845 872.065411155.93674
           X            0.99546   0.08968  -0.03200
           Y           -0.08728   0.99373   0.06981
           Z            0.03806  -0.06670   0.99705
 This molecule is an asymmetric top.
 Rotational symmetry number  1.
 Warning -- assumption of classical behavior for rotation
           may cause significant error
 Rotational temperatures (Kelvin)      0.11208     0.09932     0.07493
 Rotational constants (GHZ):           2.33539     2.06950     1.56128
 Zero-point vibrational energy     425942.5 (Joules/Mol)
                                  101.80269 (Kcal/Mol)
 Warning -- explicit consideration of   8 degrees of freedom as
           vibrations may cause significant error
 Vibrational temperatures:    143.66   310.16   377.27   462.78   550.28
          (Kelvin)            606.14   655.35   806.67   968.45  1020.99
                             1103.34  1161.93  1196.83  1217.46  1270.71
                             1311.53  1348.37  1390.43  1421.69  1455.54
                             1488.44  1504.10  1552.98  1575.79  1646.61
                             1707.73  1753.02  1785.44  1811.66  1868.20
                             1896.51  1902.62  1971.46  1993.87  2002.92
                             2027.11  2035.98  2121.55  2133.11  2187.97
                             2477.33  4276.16  4305.62  4383.52  4403.17
                             4406.92  4429.05  4436.44  4510.99  4523.08
                             4559.16

 Zero-point correction=                           0.162233 (Hartree/Particle)
 Thermal correction to Energy=                    0.169348
 Thermal correction to Enthalpy=                  0.170292
 Thermal correction to Gibbs Free Energy=         0.130855
 Sum of electronic and zero-point Energies=           -423.021877
 Sum of electronic and thermal Energies=              -423.014762
 Sum of electronic and thermal Enthalpies=            -423.013818
 Sum of electronic and thermal Free Energies=         -423.053255

                     E (Thermal)             CV                S
                      KCal/Mol        Cal/Mol-Kelvin    Cal/Mol-Kelvin
 Total                  106.268             28.829             83.003
 Electronic               0.000              0.000              0.000
 Translational            0.889              2.981             40.409
 Rotational               0.889              2.981             28.145
 Vibrational            104.490             22.867             14.449
 Vibration     1          0.604              1.949              3.457
 Vibration     2          0.645              1.817              1.996
 Vibration     3          0.670              1.742              1.647
 Vibration     4          0.707              1.632              1.302
 Vibration     5          0.752              1.508              1.029
 Vibration     6          0.784              1.424              0.888
 Vibration     7          0.814              1.349              0.779
 Vibration     8          0.916              1.116              0.523

 Optimization completed.
    -- Stationary point found.
 Normal termination of Gaussian 09 at Mon Jan 27 13:15:20 2020.
