 Gaussian 09, Revision D.01,
 Gaussian 09:  ES64L-G09RevD.01 24-Apr-2013

 -----------------------------
 # b3lyp 6-31G(2df,p) opt Freq
 -----------------------------

 -----
 titel
 -----
 Symbolic Z-matrix:
 Charge =  0 Multiplicity = 1

 SCF Done:  E(RB3LYP) =  -423.180039376     A.U. after   14 cycles
 Optimization completed.
    -- Stationary point found.
 Normal termination of Gaussian 09 at Mon Jan 27 13:16:21 2020.

 ----------------------------------------------------------------------
 #N Geom=AllCheck Guess=TCheck SCRF=Check GenChk RB3LYP/6-31G(2df,p) Fr
 eq
 ----------------------------------------------------------------------

 Structure from the checkpoint file:  "/scratch/puck/g09_bfee8282-dc19-40f1-946a-1b9d5ec6199f/Gau-169499.chk"
 -----
 titel
 -----
 Charge =  0 Multiplicity = 1

                         Standard orientation:
 ---------------------------------------------------------------------
 Center     Atomic      Atomic             Coordinates (Angstroms)
 Number     Number       Type             X           Y           Z
 ---------------------------------------------------------------------
      1          8           0        2.584757   -0.035129    0.184601
      2          6           0        1.704746   -0.218957   -0.619437
      3          6           0        0.427901   -0.955266   -0.300280
      4          6           0       -0.932458   -0.572957   -0.967604
      5          6           0       -1.609388   -1.077766    0.334499
      6          6           0       -0.294668   -0.673053    1.051530
      7          6           0       -0.289914    0.846814    1.271394
      8          8           0       -0.261511    1.546831    0.028274
      9          6           0       -1.040991    0.958790   -1.005804
     10          1           0        1.812438    0.119350   -1.676181
     11          1           0        0.614845   -2.028953   -0.421382
     12          1           0       -1.214808   -1.024767   -1.920913
     13          1           0       -2.530452   -0.574656    0.646922
     14          1           0       -1.766942   -2.159300    0.332020
     15          1           0        0.011176   -1.210134    1.950445
     16          1           0       -1.169444    1.143893    1.864407
     17          1           0        0.612186    1.164013    1.800682
     18          1           0       -2.098585    1.259052   -0.924655
     19          1           0       -0.647746    1.372248   -1.940138
 ---------------------------------------------------------------------

 SCF Done:  E(RB3LYP) =  -423.180039376     A.U. after    1 cycles

 The electronic state is 1-A.
 Alpha  occ. eigenvalues --  -19.14698 -19.13044 -10.26495 -10.23534 -10.23015
 Alpha  occ. eigenvalues --  -10.20338 -10.20095 -10.20029 -10.19182  -1.04254
 Alpha  occ. eigenvalues --   -1.03442  -0.86705  -0.76113  -0.70638  -0.64888
 Alpha  occ. eigenvalues --   -0.62694  -0.58887  -0.53509  -0.51076  -0.48685
 Alpha  occ. eigenvalues --   -0.46876  -0.46485  -0.43612  -0.41562  -0.40267
 Alpha  occ. eigenvalues --   -0.39866  -0.38995  -0.37224  -0.33340  -0.33033
 Alpha  occ. eigenvalues --   -0.30917  -0.29961  -0.25982  -0.24104
 Alpha virt. eigenvalues --   -0.01316   0.07287   0.10876   0.11259   0.11478
 Alpha virt. eigenvalues --    0.11882   0.14628   0.15022   0.15202   0.16739
 Alpha virt. eigenvalues --    0.16902   0.17604   0.18715   0.19488   0.21490

 Mulliken charges:
               1
     1  O   -0.265343
     2  C    0.144463
     3  C   -0.074526
     4  C   -0.070221
     5  C   -0.227620
     6  C   -0.046185
     7  C   -0.078925
     8  O   -0.257124
     9  C   -0.077424
    10  H    0.070540
    11  H    0.105706
    12  H    0.071334
    13  H    0.093743
    14  H    0.100323
    15  H    0.079128
    16  H    0.093002
    17  H    0.132077
    18  H    0.094758
    19  H    0.112295
 Sum of Mulliken charges =   0.00000

 Dipole moment (field-independent basis, Debye):
    X=             -2.8451    Y=             -1.6363    Z=             -0.9151  Tot=              3.4073
 Quadrupole moment (field-independent basis, Debye-Ang):
   XX=            -60.0561   YY=            -54.0743   ZZ=            -49.3289
   XY=             -1.0376   XZ=             -1.8397   YZ=              0.3648

  Exact polarizability:  80.481   1.233  68.003   1.121  -0.753  76.005
 Approx polarizability: 117.933   2.284 100.732   6.460   0.076 114.655

                      1                      2                      3
                      A                      A                      A
 Frequencies --    101.1335               157.9735               167.6751
 Red. masses --      4.3277                 3.6570                 4.2600
 Frc consts  --      0.0261                 0.0538                 0.0706
 IR Inten    --      9.0979                 7.4597                 8.2843

                      4                      5                      6
                      A                      A                      A
 Frequencies --    239.6061               316.4019               396.8050
 Red. masses --      2.2628                 2.2282                 2.8305
 Frc consts  --      0.0765                 0.1314                 0.2626
 IR Inten    --      3.7396                 2.1004                 1.8642

                      7                      8                      9
                      A                      A                      A
 Frequencies --    457.8185               520.0906               579.0324
 Red. masses --      2.4945                 3.9725                 5.1421
 Frc consts  --      0.3081                 0.6331                 1.0158
 IR Inten    --      0.6469                 3.2604                 1.9592

                     10                     11                     12
                      A                      A                      A
 Frequencies --    678.2255               771.2549               825.3923
 Red. masses --      3.1513                 2.9448                 2.4544
 Frc consts  --      0.8541                 1.0320                 0.9852
 IR Inten    --      6.3267                15.4844                 0.7925

                     13                     14                     15
                      A                      A                      A
 Frequencies --    842.7543               876.0643               902.4971
 Red. masses --      4.0923                 2.1284                 2.6160
 Frc consts  --      1.7125                 0.9625                 1.2554
 IR Inten    --      1.6348                14.5714                 4.8621

                     16                     17                     18
                      A                      A                      A
 Frequencies --    940.3027               952.4768               972.6391
 Red. masses --      1.9422                 1.6639                 1.2307
 Frc consts  --      1.0118                 0.8894                 0.6859
 IR Inten    --      1.6539                 6.4564                 2.8360

                     19                     20                     21
                      A                      A                      A
 Frequencies --    997.2512              1028.2897              1063.1356
 Red. masses --      3.3082                 1.6106                 2.0577
 Frc consts  --      1.9384                 1.0034                 1.3703
 IR Inten    --      9.7121                14.0104                45.6663

                     22                     23                     24
                      A                      A                      A
 Frequencies --   1078.6576              1105.5316              1124.0930
 Red. masses --      1.7823                 2.0101                 1.8814
 Frc consts  --      1.2218                 1.4475                 1.4007
 IR Inten    --      1.4569                 9.3065                 5.6213

                     25                     26                     27
                      A                      A                      A
 Frequencies --   1134.0196              1170.7441              1205.7480
 Red. masses --      2.0296                 1.5948                 1.7460
 Frc consts  --      1.5378                 1.2879                 1.4956
 IR Inten    --      7.6583                30.4001                12.4762

                     28                     29                     30
                      A                      A                      A
 Frequencies --   1243.4075              1248.9040              1269.5682
 Red. masses --      1.4497                 1.3419                 1.3041
 Frc consts  --      1.3206                 1.2332                 1.2385
 IR Inten    --      1.2618                 4.3792                 2.7947

                     31                     32                     33
                      A                      A                      A
 Frequencies --   1290.9404              1324.7228              1329.1280
 Red. masses --      1.4494                 1.5822                 1.5322
 Frc consts  --      1.4231                 1.6359                 1.5948
 IR Inten    --      2.5450                 6.4746                 0.5430

                     34                     35                     36
                      A                      A                      A
 Frequencies --   1348.8576              1376.7491              1413.4910
 Red. masses --      1.7016                 1.2604                 1.3241
 Frc consts  --      1.8241                 1.4076                 1.5587
 IR Inten    --      2.0733                 0.3028                 2.5113

                     37                     38                     39
                      A                      A                      A
 Frequencies --   1420.3350              1495.6850              1500.9370
 Red. masses --      1.2478                 1.1160                 1.0845
 Frc consts  --      1.4831                 1.4709                 1.4395
 IR Inten    --      6.8838                 2.1191                 1.2399

                     40                     41                     42
                      A                      A                      A
 Frequencies --   1517.0008              1815.5888              2857.7256
 Red. masses --      1.0920                10.8493                 1.0822
 Frc consts  --      1.4806                21.0711                 5.2073
 IR Inten    --      1.1964               156.5786               114.3430

                     43                     44                     45
                      A                      A                      A
 Frequencies --   2972.1985              2982.3828              3042.9744
 Red. masses --      1.0703                 1.0709                 1.0663
 Frc consts  --      5.5706                 5.6122                 5.8173
 IR Inten    --     60.6388                72.7312                39.4742

                     46                     47                     48
                      A                      A                      A
 Frequencies --   3045.9627              3068.5955              3087.8675
 Red. masses --      1.0752                 1.0925                 1.0894
 Frc consts  --      5.8774                 6.0611                 6.1199
 IR Inten    --     11.1281                25.7408                48.0085

                     49                     50                     51
                      A                      A                      A
 Frequencies --   3094.7254              3101.7243              3106.9670
 Red. masses --      1.0924                 1.0990                 1.0961
 Frc consts  --      6.1639                 6.2296                 6.2341
 IR Inten    --     13.2083                32.3105                33.7963

 - Thermochemistry -
 -------------------
 Temperature   298.150 Kelvin.  Pressure   1.00000 Atm.
 Atom     1 has atomic number  8 and mass  15.99491

 Molecular mass:   126.06808 amu.
 Principal axes and moments of inertia in atomic units:
                           1         2         3
     Eigenvalues --   702.683561102.871811190.37195
           X            0.99989   0.01230  -0.00766
           Y           -0.01244   0.99977  -0.01739
           Z            0.00744   0.01748   0.99982
 This molecule is an asymmetric top.
 Rotational symmetry number  1.
 Warning -- assumption of classical behavior for rotation
           may cause significant error
 Rotational temperatures (Kelvin)      0.12326     0.07853     0.07276
 Rotational constants (GHZ):           2.56836     1.63640     1.51612
 Zero-point vibrational energy     422054.8 (Joules/Mol)
                                  100.87352 (Kcal/Mol)
 Warning -- explicit consideration of   9 degrees of freedom as
           vibrations may cause significant error
 Vibrational temperatures:    145.51   227.29   241.25   344.74   455.23
          (Kelvin)            570.91   658.70   748.29   833.10   975.81
                             1109.66  1187.55  1212.53  1260.46  1298.49
                             1352.88  1370.40  1399.41  1434.82  1479.48
                             1529.61  1551.95  1590.61  1617.32  1631.60
                             1684.44  1734.80  1788.98  1796.89  1826.62
                             1857.37  1905.98  1912.32  1940.70  1980.83
                             2033.70  2043.54  2151.95  2159.51  2182.62
                             2612.22  4111.62  4276.33  4290.98  4378.16
                             4382.46  4415.02  4442.75  4452.61  4462.68
                             4470.23

 Zero-point correction=                           0.160752 (Hartree/Particle)
 Thermal correction to Energy=                    0.168353
 Thermal correction to Enthalpy=                  0.169297
 Thermal correction to Gibbs Free Energy=         0.128630
 Sum of electronic and zero-point Energies=           -423.019287
 Sum of electronic and thermal Energies=              -423.011686
 Sum of electronic and thermal Enthalpies=            -423.010742
 Sum of electronic and thermal Free Energies=         -423.051409

                     E (Thermal)             CV                S
                      KCal/Mol        Cal/Mol-Kelvin    Cal/Mol-Kelvin
 Total                  105.643             29.472             85.591
 Electronic               0.000              0.000              0.000
 Translational            0.889              2.981             40.409
 Rotational               0.889              2.981             28.313
 Vibrational            103.866             23.510             16.869
 Vibration     1          0.604              1.948              3.432
 Vibration     2          0.621              1.894              2.574
 Vibration     3          0.624              1.882              2.461
 Vibration     4          0.657              1.780              1.806
 Vibration     5          0.703              1.642              1.329
 Vibration     6          0.763              1.477              0.974
 Vibration     7          0.816              1.344              0.772
 Vibration     8          0.875              1.206              0.610
 Vibration     9          0.936              1.077              0.487

 Optimization completed.
    -- Stationary point found.
 Normal termination of Gaussian 09 at Mon Jan 27 14:04:00 2020.
