 Gaussian 09, Revision D.01,
 Gaussian 09:  ES64L-G09RevD.01 24-Apr-2013

 -----------------------------
 # b3lyp 6-31G(2df,p) opt Freq
 -----------------------------

 -----
 titel
 -----
 Symbolic Z-matrix:
 Charge =  0 Multiplicity = 1

 SCF Done:  E(RB3LYP) =  -423.106039982     A.U. after   13 cycles
 Optimization completed.
    -- Stationary point found.
 Normal termination of Gaussian 09 at Mon Jan 27 22:55:10 2020.

 ----------------------------------------------------------------------
 #N Geom=AllCheck Guess=TCheck SCRF=Check GenChk RB3LYP/6-31G(2df,p) Fr
 eq
 ----------------------------------------------------------------------

 Structure from the checkpoint file:  "/scratch/puck/g09_f8a26eaf-fcb4-448d-b68c-78a45d4f2fee/Gau-101369.chk"
 -----
 titel
 -----
 Charge =  0 Multiplicity = 1

                         Standard orientation:
 ---------------------------------------------------------------------
 Center     Atomic      Atomic             Coordinates (Angstroms)
 Number     Number       Type             X           Y           Z
 ---------------------------------------------------------------------
      1          6           0       -2.593899   -0.509612   -0.501286
      2          6           0       -1.077504   -0.466337   -0.600196
      3          6           0       -0.161260   -1.166143    0.460762
      4          6           0       -0.485333   -0.000161    1.455942
      5          6           0       -0.248902    0.687476    0.083576
      6          8           0       -0.336494    2.048634   -0.113948
      7          6           0        0.962582   -0.260291   -0.058552
      8          6           0        2.107199   -0.394040   -0.944610
      9          8           0        2.250842   -0.099840    0.470438
     10          1           0       -2.973320   -1.475250   -0.852225
     11          1           0       -2.970309   -0.355313    0.512160
     12          1           0       -3.034962    0.266194   -1.136778
     13          1           0       -0.764848   -0.666232   -1.632820
     14          1           0       -0.104801   -2.228339    0.683078
     15          1           0       -1.494967    0.039584    1.862530
     16          1           0        0.263878    0.198046    2.223900
     17          1           0       -0.105022    2.243575   -1.028731
     18          1           0        2.459863   -1.378904   -1.247336
     19          1           0        2.392405    0.420934   -1.609513
 ---------------------------------------------------------------------

 SCF Done:  E(RB3LYP) =  -423.106039982     A.U. after    1 cycles

 The electronic state is 1-A.
 Alpha  occ. eigenvalues --  -19.15219 -19.14884 -10.24838 -10.24177 -10.23375
 Alpha  occ. eigenvalues --  -10.20231 -10.19747 -10.18748 -10.17825  -1.07217
 Alpha  occ. eigenvalues --   -1.03745  -0.90705  -0.73666  -0.68157  -0.64455
 Alpha  occ. eigenvalues --   -0.62826  -0.59526  -0.54539  -0.52328  -0.48946
 Alpha  occ. eigenvalues --   -0.48287  -0.43901  -0.42121  -0.41084  -0.40407
 Alpha  occ. eigenvalues --   -0.37794  -0.36910  -0.34244  -0.33377  -0.32580
 Alpha  occ. eigenvalues --   -0.31247  -0.29053  -0.28254  -0.24118
 Alpha virt. eigenvalues --    0.06749   0.09616   0.10071   0.11730   0.13095
 Alpha virt. eigenvalues --    0.13794   0.14243   0.15003   0.15351   0.15912
 Alpha virt. eigenvalues --    0.16990   0.18731   0.19624   0.21082   0.21807

 Mulliken charges:
               1
     1  C   -0.440673
     2  C   -0.015874
     3  C   -0.179839
     4  C   -0.281000
     5  C    0.287991
     6  O   -0.465509
     7  C    0.482496
     8  C   -0.327341
     9  O   -0.305143
    10  H    0.118185
    11  H    0.124106
    12  H    0.120435
    13  H    0.060156
    14  H    0.086868
    15  H    0.099670
    16  H    0.118763
    17  H    0.284684
    18  H    0.120503
    19  H    0.111521
 Sum of Mulliken charges =   0.00000

 Dipole moment (field-independent basis, Debye):
    X=             -0.9873    Y=             -0.9240    Z=             -2.3264  Tot=              2.6909
 Quadrupole moment (field-independent basis, Debye-Ang):
   XX=            -56.2862   YY=            -53.4228   ZZ=            -50.2008
   XY=              0.5002   XZ=             -3.8091   YZ=             -3.1052

  Exact polarizability:  85.704   0.209  69.289  -4.372  -0.483  73.011
 Approx polarizability: 113.307   0.071 105.707  -3.558   0.361 113.312

                      1                      2                      3
                      A                      A                      A
 Frequencies --    159.1319               171.4662               189.3425
 Red. masses --      1.5096                 1.7380                 2.1114
 Frc consts  --      0.0225                 0.0301                 0.0446
 IR Inten    --      0.1796                 0.3293                13.8985

                      4                      5                      6
                      A                      A                      A
 Frequencies --    201.6375               236.4475               265.0561
 Red. masses --      2.9304                 1.5107                 3.7970
 Frc consts  --      0.0702                 0.0498                 0.1572
 IR Inten    --      2.1621                75.8848                15.0463

                      7                      8                      9
                      A                      A                      A
 Frequencies --    363.8485               391.8078               467.3482
 Red. masses --      2.9172                 2.9742                 4.0301
 Frc consts  --      0.2275                 0.2690                 0.5186
 IR Inten    --      4.6833                 7.3671                 2.6418

                     10                     11                     12
                      A                      A                      A
 Frequencies --    495.4842               602.6977               662.0084
 Red. masses --      2.8188                 3.6277                 3.9554
 Frc consts  --      0.4077                 0.7764                 1.0213
 IR Inten    --      4.0164                12.5986                 5.4236

                     13                     14                     15
                      A                      A                      A
 Frequencies --    690.7765               742.2099               809.9399
 Red. masses --      2.8391                 2.8229                 3.0132
 Frc consts  --      0.7982                 0.9162                 1.1646
 IR Inten    --      2.8446                 6.3253                 8.4288

                     16                     17                     18
                      A                      A                      A
 Frequencies --    828.4175               897.6600               923.1709
 Red. masses --      2.8058                 3.9962                 2.2087
 Frc consts  --      1.1345                 1.8972                 1.1091
 IR Inten    --     20.1598                19.5826                11.1388

                     19                     20                     21
                      A                      A                      A
 Frequencies --    947.8422               992.6956              1021.3914
 Red. masses --      1.8670                 1.5678                 2.3849
 Frc consts  --      0.9882                 0.9103                 1.4659
 IR Inten    --      2.7947                18.2657                24.4670

                     22                     23                     24
                      A                      A                      A
 Frequencies --   1042.9643              1065.8410              1105.5659
 Red. masses --      1.3058                 1.5739                 1.6469
 Frc consts  --      0.8369                 1.0534                 1.1860
 IR Inten    --     10.8909                 1.8533                10.2636

                     25                     26                     27
                      A                      A                      A
 Frequencies --   1107.4950              1119.3429              1129.6944
 Red. masses --      1.3758                 1.6188                 1.5444
 Frc consts  --      0.9943                 1.1950                 1.1612
 IR Inten    --      3.5214                 4.5689                 1.4532

                     28                     29                     30
                      A                      A                      A
 Frequencies --   1132.6615              1171.1122              1189.3759
 Red. masses --      1.5979                 1.8657                 1.6978
 Frc consts  --      1.2078                 1.5076                 1.4151
 IR Inten    --     14.3140                 5.3136                 0.8673

                     31                     32                     33
                      A                      A                      A
 Frequencies --   1217.7261              1227.6425              1294.7703
 Red. masses --      1.6466                 1.9440                 2.4742
 Frc consts  --      1.4386                 1.7262                 2.4438
 IR Inten    --      6.0907                 1.1798               191.3006

                     34                     35                     36
                      A                      A                      A
 Frequencies --   1367.4510              1407.3702              1421.5146
 Red. masses --      2.1887                 1.3031                 1.4004
 Frc consts  --      2.4113                 1.5208                 1.6672
 IR Inten    --     14.0020                 4.6304                10.9231

                     37                     38                     39
                      A                      A                      A
 Frequencies --   1459.2873              1494.8264              1500.0896
 Red. masses --      1.5285                 1.0490                 1.0944
 Frc consts  --      1.9178                 1.3811                 1.4510
 IR Inten    --     29.5185                 6.8010                 3.7800

                     40                     41                     42
                      A                      A                      A
 Frequencies --   1527.3398              1566.1664              3023.7062
 Red. masses --      1.1600                 2.3877                 1.0810
 Frc consts  --      1.5944                 3.4508                 5.8230
 IR Inten    --      6.1588                30.1129                35.1484

                     43                     44                     45
                      A                      A                      A
 Frequencies --   3038.1438              3079.8471              3088.5161
 Red. masses --      1.0405                 1.0511                 1.0565
 Frc consts  --      5.6587                 5.8744                 5.9377
 IR Inten    --     33.3018                27.2106                19.5166

                     46                     47                     48
                      A                      A                      A
 Frequencies --   3092.2394              3123.7321              3156.1568
 Red. masses --      1.1007                 1.0976                 1.1060
 Frc consts  --      6.2009                 6.3104                 6.4913
 IR Inten    --     20.3571                30.6079                25.2944

                     49                     50                     51
                      A                      A                      A
 Frequencies --   3158.3467              3164.0513              3805.5638
 Red. masses --      1.0968                 1.1181                 1.0657
 Frc consts  --      6.4458                 6.5953                 9.0932
 IR Inten    --     20.7530                22.8696                24.2093

 - Thermochemistry -
 -------------------
 Temperature   298.150 Kelvin.  Pressure   1.00000 Atm.
 Atom     1 has atomic number  6 and mass  12.00000

 Molecular mass:   126.06808 amu.
 Principal axes and moments of inertia in atomic units:
                           1         2         3
     Eigenvalues --   648.571921272.960451428.76140
           X            0.99976   0.01623  -0.01489
           Y           -0.01637   0.99982  -0.00923
           Z            0.01474   0.00947   0.99985
 This molecule is an asymmetric top.
 Rotational symmetry number  1.
 Warning -- assumption of classical behavior for rotation
           may cause significant error
 Rotational temperatures (Kelvin)      0.13355     0.06804     0.06062
 Rotational constants (GHZ):           2.78264     1.41775     1.26315
 Zero-point vibrational energy     414738.8 (Joules/Mol)
                                   99.12496 (Kcal/Mol)
 Warning -- explicit consideration of  11 degrees of freedom as
           vibrations may cause significant error
 Vibrational temperatures:    228.96   246.70   272.42   290.11   340.19
          (Kelvin)            381.36   523.50   563.72   672.41   712.89
                              867.15   952.48   993.87  1067.87  1165.32
                             1191.91  1291.53  1328.24  1363.73  1428.27
                             1469.55  1500.59  1533.51  1590.66  1593.44
                             1610.48  1625.38  1629.65  1684.97  1711.24
                             1752.03  1766.30  1862.88  1967.45  2024.89
                             2045.24  2099.59  2150.72  2158.29  2197.50
                             2253.36  4350.43  4371.21  4431.21  4443.68
                             4449.04  4494.35  4541.00  4544.15  4552.36
                             5475.35

 Zero-point correction=                           0.157966 (Hartree/Particle)
 Thermal correction to Energy=                    0.166448
 Thermal correction to Enthalpy=                  0.167392
 Thermal correction to Gibbs Free Energy=         0.125419
 Sum of electronic and zero-point Energies=           -422.948074
 Sum of electronic and thermal Energies=              -422.939592
 Sum of electronic and thermal Enthalpies=            -422.938648
 Sum of electronic and thermal Free Energies=         -422.980621

                     E (Thermal)             CV                S
                      KCal/Mol        Cal/Mol-Kelvin    Cal/Mol-Kelvin
 Total                  104.448             33.098             88.340
 Electronic               0.000              0.000              0.000
 Translational            0.889              2.981             40.409
 Rotational               0.889              2.981             28.558
 Vibrational            102.670             27.136             19.374
 Vibration     1          0.621              1.892              2.560
 Vibration     2          0.626              1.878              2.419
 Vibration     3          0.633              1.855              2.234
 Vibration     4          0.639              1.838              2.118
 Vibration     5          0.655              1.785              1.829
 Vibration     6          0.671              1.737              1.628
 Vibration     7          0.737              1.547              1.106
 Vibration     8          0.759              1.488              0.993
 Vibration     9          0.825              1.322              0.745
 Vibration    10          0.851              1.260              0.670
 Vibration    11          0.961              1.026              0.445

 Normal termination of Gaussian 09 at Mon Jan 27 23:38:54 2020.
