 Gaussian 09, Revision D.01,
 Gaussian 09:  ES64L-G09RevD.01 24-Apr-2013

 -----------------------------
 # b3lyp 6-31G(2df,p) opt Freq
 -----------------------------

 -----
 titel
 -----
 Symbolic Z-matrix:
 Charge =  0 Multiplicity = 1

 SCF Done:  E(RB3LYP) =  -423.192302126     A.U. after   13 cycles
 Optimization completed.
    -- Stationary point found.
 Normal termination of Gaussian 09 at Mon Jan 27 18:13:57 2020.

 ----------------------------------------------------------------------
 #N Geom=AllCheck Guess=TCheck SCRF=Check GenChk RB3LYP/6-31G(2df,p) Fr
 eq
 ----------------------------------------------------------------------

 Structure from the checkpoint file:  "/scratch/puck/g09_f37bd496-7ece-4e90-ba62-530eb5650aa0/Gau-89354.chk"
 -----
 titel
 -----
 Charge =  0 Multiplicity = 1

                         Standard orientation:
 ---------------------------------------------------------------------
 Center     Atomic      Atomic             Coordinates (Angstroms)
 Number     Number       Type             X           Y           Z
 ---------------------------------------------------------------------
      1          6           0       -2.310330    0.000000    0.471868
      2          6           0       -0.870260    0.000001    0.055511
      3          8           0       -0.528918   -1.093299   -0.791518
      4          6           0        0.876334   -0.815004   -0.810592
      5          6           0        1.189653   -1.169448    0.653530
      6          6           0        0.319443   -0.000001    1.170572
      7          6           0        1.189655    1.169444    0.653532
      8          6           0        0.876335    0.815004   -0.810590
      9          8           0       -0.528916    1.093303   -0.791515
     10          1           0       -2.529766    0.889117    1.067740
     11          1           0       -2.951393   -0.000105   -0.413357
     12          1           0       -2.529722   -0.889010    1.067917
     13          1           0        1.373039   -1.331283   -1.629160
     14          1           0        0.817839   -2.169335    0.880411
     15          1           0        2.233895   -1.084876    0.962892
     16          1           0       -0.000980   -0.000002    2.210689
     17          1           0        0.817844    2.169332    0.880417
     18          1           0        2.233898    1.084868    0.962893
     19          1           0        1.373041    1.331285   -1.629157
 ---------------------------------------------------------------------

 SCF Done:  E(RB3LYP) =  -423.192302126     A.U. after    1 cycles

 The electronic state is 1-A.
 Alpha  occ. eigenvalues --  -19.13614 -19.13613 -10.27737 -10.23471 -10.23459
 Alpha  occ. eigenvalues --  -10.19407 -10.18230 -10.18228 -10.18005  -1.09616
 Alpha  occ. eigenvalues --   -0.98980  -0.82813  -0.76574  -0.69880  -0.67696
 Alpha  occ. eigenvalues --   -0.59806  -0.57857  -0.55924  -0.51442  -0.49932
 Alpha  occ. eigenvalues --   -0.44501  -0.44090  -0.44014  -0.41446  -0.38732
 Alpha  occ. eigenvalues --   -0.37048  -0.36918  -0.35374  -0.34962  -0.33299
 Alpha  occ. eigenvalues --   -0.32130  -0.30391  -0.26855  -0.25048
 Alpha virt. eigenvalues --    0.09307   0.11168   0.12101   0.12435   0.12619
 Alpha virt. eigenvalues --    0.14274   0.15377   0.15472   0.15845   0.17163
 Alpha virt. eigenvalues --    0.17852   0.18010   0.21490   0.21560   0.21877

 Mulliken charges:
               1
     1  C   -0.504336
     2  C    0.484131
     3  O   -0.270445
     4  C    0.037802
     5  C   -0.207318
     6  C   -0.137238
     7  C   -0.207318
     8  C    0.037802
     9  O   -0.270446
    10  H    0.130956
    11  H    0.142088
    12  H    0.130954
    13  H    0.081661
    14  H    0.106082
    15  H    0.094057
    16  H    0.069767
    17  H    0.106082
    18  H    0.094057
    19  H    0.081661
 Sum of Mulliken charges =   0.00000

 Dipole moment (field-independent basis, Debye):
    X=              1.3416    Y=              0.0000    Z=              1.3547  Tot=              1.9066
 Quadrupole moment (field-independent basis, Debye-Ang):
   XX=            -49.7657   YY=            -55.0489   ZZ=            -52.9450
   XY=              0.0000   XZ=             -3.3254   YZ=              0.0000

  Exact polarizability:  79.618   0.000  70.551  -1.971   0.000  68.523
 Approx polarizability: 112.411   0.000 107.081  -1.104   0.000 104.049

                      1                      2                      3
                      A                      A                      A
 Frequencies --    179.2690               258.0381               274.6829
 Red. masses --      1.0240                 2.4610                 2.6541
 Frc consts  --      0.0194                 0.0965                 0.1180
 IR Inten    --      0.0375                 1.7117                 3.2470

                      4                      5                      6
                      A                      A                      A
 Frequencies --    415.5702               536.1442               541.5206
 Red. masses --      2.5998                 4.0354                 2.0017
 Frc consts  --      0.2645                 0.6834                 0.3458
 IR Inten    --      1.2708                 0.5658                 0.1188

                      7                      8                      9
                      A                      A                      A
 Frequencies --    615.9298               616.8084               637.3337
 Red. masses --      5.2601                 3.8977                 3.8175
 Frc consts  --      1.1757                 0.8737                 0.9136
 IR Inten    --      4.9195                 3.3635                 1.9404

                     10                     11                     12
                      A                      A                      A
 Frequencies --    696.5566               760.1356               821.9404
 Red. masses --      5.8082                 3.2395                 4.6165
 Frc consts  --      1.6604                 1.1028                 1.8376
 IR Inten    --      3.8809                10.5196                21.6018

                     13                     14                     15
                      A                      A                      A
 Frequencies --    841.0873               876.0523               888.5068
 Red. masses --      3.1683                 2.6467                 2.7170
 Frc consts  --      1.3205                 1.1968                 1.2637
 IR Inten    --      3.7830                32.8942                13.3000

                     16                     17                     18
                      A                      A                      A
 Frequencies --    907.3665               921.3621               946.3711
 Red. masses --      2.5524                 2.1217                 3.6360
 Frc consts  --      1.2381                 1.0612                 1.9187
 IR Inten    --      4.7478                 1.0762                18.0769

                     19                     20                     21
                      A                      A                      A
 Frequencies --    957.9570               965.6426               992.2889
 Red. masses --      1.5614                 1.9983                 3.3357
 Frc consts  --      0.8442                 1.0979                 1.9351
 IR Inten    --      3.2183                 1.4049                64.2531

                     22                     23                     24
                      A                      A                      A
 Frequencies --   1035.0330              1050.5689              1100.0596
 Red. masses --      3.0001                 1.3265                 1.1479
 Frc consts  --      1.8937                 0.8626                 0.8184
 IR Inten    --      1.6653                 8.4281                 1.9481

                     25                     26                     27
                      A                      A                      A
 Frequencies --   1108.1497              1130.9656              1151.5241
 Red. masses --      1.6444                 1.7917                 1.6870
 Frc consts  --      1.1898                 1.3503                 1.3180
 IR Inten    --     34.6178                26.3115                18.4896

                     28                     29                     30
                      A                      A                      A
 Frequencies --   1172.9636              1204.2405              1247.0254
 Red. masses --      1.6084                 2.0325                 1.6296
 Frc consts  --      1.3038                 1.7366                 1.4931
 IR Inten    --      1.0476                 0.0982                 3.6452

                     31                     32                     33
                      A                      A                      A
 Frequencies --   1256.3028              1293.5245              1293.9760
 Red. masses --      1.3630                 1.4781                 1.5937
 Frc consts  --      1.2675                 1.4572                 1.5722
 IR Inten    --      2.7788                16.8852                 6.2141

                     34                     35                     36
                      A                      A                      A
 Frequencies --   1305.0548              1318.9730              1349.5904
 Red. masses --      1.4826                 1.6105                 2.0758
 Frc consts  --      1.4878                 1.6507                 2.2276
 IR Inten    --      7.4513                 8.1565                21.4464

                     37                     38                     39
                      A                      A                      A
 Frequencies --   1427.5010              1479.4595              1483.4480
 Red. masses --      1.9105                 1.0474                 1.0991
 Frc consts  --      2.2938                 1.3507                 1.4251
 IR Inten    --     35.6104                 1.8950                 0.7600

                     40                     41                     42
                      A                      A                      A
 Frequencies --   1486.8835              1513.4792              3055.7305
 Red. masses --      1.0525                 1.1015                 1.0348
 Frc consts  --      1.3710                 1.4865                 5.6932
 IR Inten    --      4.1614                 3.9829                 9.7406

                     43                     44                     45
                      A                      A                      A
 Frequencies --   3067.9243              3078.4592              3128.2443
 Red. masses --      1.0611                 1.0590                 1.1049
 Frc consts  --      5.8845                 5.9130                 6.3707
 IR Inten    --     13.9512                38.0812                20.8650

                     46                     47                     48
                      A                      A                      A
 Frequencies --   3132.5166              3134.3535              3135.5526
 Red. masses --      1.1018                 1.1029                 1.1020
 Frc consts  --      6.3698                 6.3839                 6.3832
 IR Inten    --      9.8101                19.2595                12.2535

                     49                     50                     51
                      A                      A                      A
 Frequencies --   3138.8976              3145.2203              3153.6592
 Red. masses --      1.0946                 1.0919                 1.0915
 Frc consts  --      6.3543                 6.3639                 6.3959
 IR Inten    --     35.2033                13.4340                42.4447

 - Thermochemistry -
 -------------------
 Temperature   298.150 Kelvin.  Pressure   1.00000 Atm.
 Atom     1 has atomic number  6 and mass  12.00000

 Molecular mass:   126.06808 amu.
 Principal axes and moments of inertia in atomic units:
                           1         2         3
     Eigenvalues --   661.28268 906.45466 988.13433
           X            0.99951   0.00000  -0.03128
           Y            0.00000   1.00000   0.00000
           Z            0.03128   0.00000   0.99951
 This molecule is an asymmetric top.
 Rotational symmetry number  1.
 Warning -- assumption of classical behavior for rotation
           may cause significant error
 Rotational temperatures (Kelvin)      0.13098     0.09555     0.08765
 Rotational constants (GHZ):           2.72915     1.99099     1.82641
 Zero-point vibrational energy     426049.1 (Joules/Mol)
                                  101.82818 (Kcal/Mol)
 Warning -- explicit consideration of   8 degrees of freedom as
           vibrations may cause significant error
 Vibrational temperatures:    257.93   371.26   395.21   597.91   771.39
          (Kelvin)            779.13   886.18   887.45   916.98  1002.19
                             1093.66  1182.59  1210.14  1260.44  1278.36
                             1305.50  1325.63  1361.62  1378.28  1389.34
                             1427.68  1489.18  1511.53  1582.74  1594.38
                             1627.21  1656.78  1687.63  1732.63  1794.19
                             1807.54  1861.09  1861.74  1877.68  1897.71
                             1941.76  2053.85  2128.61  2134.35  2139.29
                             2177.56  4396.51  4414.05  4429.21  4500.84
                             4506.99  4509.63  4511.36  4516.17  4525.26
                             4537.41

 Zero-point correction=                           0.162274 (Hartree/Particle)
 Thermal correction to Energy=                    0.168787
 Thermal correction to Enthalpy=                  0.169731
 Thermal correction to Gibbs Free Energy=         0.131823
 Sum of electronic and zero-point Energies=           -423.030029
 Sum of electronic and thermal Energies=              -423.023515
 Sum of electronic and thermal Enthalpies=            -423.022571
 Sum of electronic and thermal Free Energies=         -423.060479

                     E (Thermal)             CV                S
                      KCal/Mol        Cal/Mol-Kelvin    Cal/Mol-Kelvin
 Total                  105.915             28.049             79.784
 Electronic               0.000              0.000              0.000
 Translational            0.889              2.981             40.409
 Rotational               0.889              2.981             27.873
 Vibrational            104.138             22.088             11.503
 Vibration     1          0.629              1.868              2.336
 Vibration     2          0.667              1.749              1.675
 Vibration     3          0.677              1.720              1.567
 Vibration     4          0.779              1.436              0.907
 Vibration     5          0.891              1.170              0.574
 Vibration     6          0.897              1.158              0.562
 Vibration     7          0.976              0.998              0.423
 Vibration     8          0.976              0.996              0.422

 Optimization completed.
    -- Stationary point found.
 Normal termination of Gaussian 09 at Mon Jan 27 19:02:15 2020.
