 Gaussian 09, Revision D.01,
 Gaussian 09:  ES64L-G09RevD.01 24-Apr-2013

 -----------------------------
 # b3lyp 6-31G(2df,p) opt Freq
 -----------------------------

 -----
 titel
 -----
 Symbolic Z-matrix:
 Charge =  0 Multiplicity = 1

 SCF Done:  E(RB3LYP) =  -423.207242822     A.U. after   14 cycles
 Optimization completed.
    -- Stationary point found.
 Normal termination of Gaussian 09 at Tue Jan 28 13:26:07 2020.

 ----------------------------------------------------------------------
 #N Geom=AllCheck Guess=TCheck SCRF=Check GenChk RB3LYP/6-31G(2df,p) Fr
 eq
 ----------------------------------------------------------------------

 Structure from the checkpoint file:  "/scratch/puck/g09_d6953562-b6ac-4bbe-841d-1596f66fa9c3/Gau-93810.chk"
 -----
 titel
 -----
 Charge =  0 Multiplicity = 1

                         Standard orientation:
 ---------------------------------------------------------------------
 Center     Atomic      Atomic             Coordinates (Angstroms)
 Number     Number       Type             X           Y           Z
 ---------------------------------------------------------------------
      1          6           0        2.858657    0.068326   -0.371178
      2          6           0        1.836457   -1.035135   -0.083968
      3          6           0        0.515963   -0.503351    0.463031
      4          6           0       -0.630814   -1.541184    0.682838
      5          6           0       -1.556208   -0.661546   -0.159800
      6          8           0       -2.719096   -0.668829   -0.427571
      7          6           0       -0.382769    0.307975   -0.514066
      8          6           0       -0.648049    1.762001   -0.221977
      9          8           0       -0.155366    2.369622    0.694782
     10          1           0        3.791572   -0.349452   -0.761213
     11          1           0        2.479938    0.782053   -1.110969
     12          1           0        3.094527    0.633139    0.536410
     13          1           0        1.644190   -1.611984   -0.999750
     14          1           0        2.255952   -1.746585    0.638797
     15          1           0        0.692573    0.092117    1.362944
     16          1           0       -0.452581   -2.512364    0.206780
     17          1           0       -0.967113   -1.717773    1.708279
     18          1           0       -0.128942    0.198017   -1.576892
     19          1           0       -1.373841    2.243978   -0.911349
 ---------------------------------------------------------------------

 SCF Done:  E(RB3LYP) =  -423.207242822     A.U. after    1 cycles

 The electronic state is 1-A.
 Alpha  occ. eigenvalues --  -19.15311 -19.14899 -10.28786 -10.28126 -10.20892
 Alpha  occ. eigenvalues --  -10.20447 -10.20232 -10.19437 -10.18183  -1.06340
 Alpha  occ. eigenvalues --   -1.05490  -0.86551  -0.77117  -0.72497  -0.65725
 Alpha  occ. eigenvalues --   -0.60712  -0.58222  -0.52954  -0.50367  -0.47694
 Alpha  occ. eigenvalues --   -0.46929  -0.44905  -0.44210  -0.42673  -0.41951
 Alpha  occ. eigenvalues --   -0.39861  -0.38594  -0.37851  -0.36225  -0.34073
 Alpha  occ. eigenvalues --   -0.33404  -0.33004  -0.27146  -0.24837
 Alpha virt. eigenvalues --   -0.04134  -0.02093   0.07630   0.10397   0.10706
 Alpha virt. eigenvalues --    0.12518   0.13076   0.14153   0.15394   0.15732
 Alpha virt. eigenvalues --    0.16752   0.17856   0.19376   0.19445   0.21235

 Mulliken charges:
               1
     1  C   -0.378830
     2  C   -0.202186
     3  C    0.023818
     4  C   -0.379111
     5  C    0.390248
     6  O   -0.279703
     7  C   -0.232782
     8  C    0.144603
     9  O   -0.240024
    10  H    0.116238
    11  H    0.116797
    12  H    0.128698
    13  H    0.091938
    14  H    0.103965
    15  H    0.105564
    16  H    0.134238
    17  H    0.139207
    18  H    0.119725
    19  H    0.097595
 Sum of Mulliken charges =   0.00000

 Dipole moment (field-independent basis, Debye):
    X=              1.9910    Y=             -1.7561    Z=             -0.8912  Tot=              2.8004
 Quadrupole moment (field-independent basis, Debye-Ang):
   XX=            -60.7573   YY=            -56.6656   ZZ=            -51.7556
   XY=             -3.0475   XZ=             -1.5004   YZ=             -4.3638

  Exact polarizability:  85.269   1.464  82.218   3.670  -2.578  65.618
 Approx polarizability: 119.716   6.668 119.273  10.979   3.162 107.187

                      1                      2                      3
                      A                      A                      A
 Frequencies --     33.2085                81.0161               101.9350
 Red. masses --      4.0971                 6.3427                 2.1084
 Frc consts  --      0.0027                 0.0245                 0.0129
 IR Inten    --      1.1053                 7.6592                 0.7663

                      4                      5                      6
                      A                      A                      A
 Frequencies --    161.1716               181.4591               219.3622
 Red. masses --      2.6607                 1.8939                 2.9822
 Frc consts  --      0.0407                 0.0367                 0.0846
 IR Inten    --      2.6754                 5.2190                 0.9374

                      7                      8                      9
                      A                      A                      A
 Frequencies --    245.7974               363.0138               374.4170
 Red. masses --      1.5668                 3.3068                 3.0462
 Frc consts  --      0.0558                 0.2567                 0.2516
 IR Inten    --      2.1371                 1.0230                 2.0577

                     10                     11                     12
                      A                      A                      A
 Frequencies --    448.0265               536.7904               630.9336
 Red. masses --      2.3110                 2.9786                 4.2687
 Frc consts  --      0.2733                 0.5057                 1.0012
 IR Inten    --      1.6744                 0.9612                18.4697

                     13                     14                     15
                      A                      A                      A
 Frequencies --    642.7194               740.2724               785.6141
 Red. masses --      4.0086                 2.3596                 1.2964
 Frc consts  --      0.9756                 0.7618                 0.4714
 IR Inten    --      3.3655                13.3202                 4.2800

                     16                     17                     18
                      A                      A                      A
 Frequencies --    814.0388               891.0065               931.4610
 Red. masses --      2.1827                 1.4089                 2.5955
 Frc consts  --      0.8522                 0.6590                 1.3268
 IR Inten    --      5.0887                12.1794                13.4448

                     19                     20                     21
                      A                      A                      A
 Frequencies --    963.8700               998.1731              1020.9448
 Red. masses --      1.7893                 1.8604                 1.7106
 Frc consts  --      0.9794                 1.0921                 1.0505
 IR Inten    --      4.6674                 3.6281                 3.5838

                     22                     23                     24
                      A                      A                      A
 Frequencies --   1054.7726              1076.7682              1118.8281
 Red. masses --      4.2155                 2.4390                 1.8860
 Frc consts  --      2.7632                 1.6661                 1.3910
 IR Inten    --    119.1639                10.6566                 0.4997

                     25                     26                     27
                      A                      A                      A
 Frequencies --   1128.4695              1136.6798              1189.0130
 Red. masses --      1.9566                 1.8181                 1.6997
 Frc consts  --      1.4680                 1.3840                 1.4158
 IR Inten    --     25.6784                 7.5227                15.9513

                     28                     29                     30
                      A                      A                      A
 Frequencies --   1224.1661              1236.1809              1290.9794
 Red. masses --      1.5381                 1.4945                 1.4496
 Frc consts  --      1.3581                 1.3456                 1.4234
 IR Inten    --      6.7251                 4.9189                26.9391

                     31                     32                     33
                      A                      A                      A
 Frequencies --   1306.5667              1350.3789              1397.4572
 Red. masses --      1.2751                 1.4306                 1.5255
 Frc consts  --      1.2825                 1.5371                 1.7552
 IR Inten    --      2.2976                16.2017                 3.1921

                     34                     35                     36
                      A                      A                      A
 Frequencies --   1416.3846              1417.5786              1436.6820
 Red. masses --      1.2273                 1.1937                 1.1228
 Frc consts  --      1.4507                 1.4133                 1.3654
 IR Inten    --      1.5977                 6.4924                 5.9839

                     37                     38                     39
                      A                      A                      A
 Frequencies --   1486.5257              1498.5109              1504.8375
 Red. masses --      1.0576                 1.0397                 1.0774
 Frc consts  --      1.3770                 1.3756                 1.4374
 IR Inten    --      0.9526                 5.9070                 2.8831

                     40                     41                     42
                      A                      A                      A
 Frequencies --   1811.1697              1893.6363              2905.3478
 Red. masses --     10.0982                12.9062                 1.0841
 Frc consts  --     19.5170                27.2673                 5.3918
 IR Inten    --    223.2735               246.6499               106.1210

                     43                     44                     45
                      A                      A                      A
 Frequencies --   3007.8959              3034.6281              3035.9197
 Red. masses --      1.0628                 1.0525                 1.0658
 Frc consts  --      5.6652                 5.7108                 5.7877
 IR Inten    --     25.7393                12.6551                10.6376

                     46                     47                     48
                      A                      A                      A
 Frequencies --   3043.6596              3048.1545              3080.8206
 Red. masses --      1.0951                 1.0617                 1.0868
 Frc consts  --      5.9769                 5.8121                 6.0774
 IR Inten    --     14.9664                 8.7046                 6.0342

                     49                     50                     51
                      A                      A                      A
 Frequencies --   3101.0954              3107.0563              3110.2945
 Red. masses --      1.1009                 1.1020                 1.1018
 Frc consts  --      6.2376                 6.2678                 6.2800
 IR Inten    --     39.4557                 6.6075                31.0621

 - Thermochemistry -
 -------------------
 Temperature   298.150 Kelvin.  Pressure   1.00000 Atm.
 Atom     1 has atomic number  6 and mass  12.00000

 Molecular mass:   126.06808 amu.
 Principal axes and moments of inertia in atomic units:
                           1         2         3
     Eigenvalues --   865.598171350.370731957.84350
           X            0.99934  -0.03446  -0.01122
           Y            0.03409   0.99893  -0.03126
           Z            0.01229   0.03086   0.99945
 This molecule is an asymmetric top.
 Rotational symmetry number  1.
 Warning -- assumption of classical behavior for rotation
           may cause significant error
 Rotational temperatures (Kelvin)      0.10006     0.06414     0.04424
 Rotational constants (GHZ):           2.08496     1.33648     0.92180
 Zero-point vibrational energy     410413.0 (Joules/Mol)
                                   98.09105 (Kcal/Mol)
 Warning -- explicit consideration of  11 degrees of freedom as
           vibrations may cause significant error
 Vibrational temperatures:     47.78   116.56   146.66   231.89   261.08
          (Kelvin)            315.61   353.65   522.30   538.70   644.61
                              772.32   907.77   924.73  1065.09  1130.32
                             1171.22  1281.96  1340.16  1386.79  1436.15
                             1468.91  1517.58  1549.23  1609.74  1623.61
                             1635.43  1710.72  1761.30  1778.59  1857.43
                             1879.86  1942.89  2010.63  2037.86  2039.58
                             2067.06  2138.78  2156.02  2165.12  2605.87
                             2724.52  4180.14  4327.69  4366.15  4368.01
                             4379.14  4385.61  4432.61  4461.78  4470.36
                             4475.01

 Zero-point correction=                           0.156318 (Hartree/Particle)
 Thermal correction to Energy=                    0.165909
 Thermal correction to Enthalpy=                  0.166853
 Thermal correction to Gibbs Free Energy=         0.120632
 Sum of electronic and zero-point Energies=           -423.050925
 Sum of electronic and thermal Energies=              -423.041334
 Sum of electronic and thermal Enthalpies=            -423.040390
 Sum of electronic and thermal Free Energies=         -423.086611

                     E (Thermal)             CV                S
                      KCal/Mol        Cal/Mol-Kelvin    Cal/Mol-Kelvin
 Total                  104.109             33.958             97.281
 Electronic               0.000              0.000              0.000
 Translational            0.889              2.981             40.409
 Rotational               0.889              2.981             29.216
 Vibrational            102.332             27.996             27.657
 Vibration     1          0.594              1.983              5.628
 Vibration     2          0.600              1.962              3.866
 Vibration     3          0.604              1.948              3.417
 Vibration     4          0.622              1.890              2.536
 Vibration     5          0.630              1.865              2.313
 Vibration     6          0.647              1.812              1.964
 Vibration     7          0.660              1.770              1.761
 Vibration     8          0.737              1.548              1.109
 Vibration     9          0.746              1.525              1.062
 Vibration    10          0.807              1.365              0.802
 Vibration    11          0.892              1.169              0.572

 Optimization completed.
    -- Stationary point found.
 Normal termination of Gaussian 09 at Tue Jan 28 14:51:16 2020.
