 Gaussian 09, Revision D.01,
 Gaussian 09:  ES64L-G09RevD.01 24-Apr-2013

 -----------------------------
 # b3lyp 6-31G(2df,p) opt Freq
 -----------------------------

 -----
 titel
 -----
 Symbolic Z-matrix:
 Charge =  0 Multiplicity = 1

 SCF Done:  E(RB3LYP) =  -423.119334804     A.U. after   13 cycles
 Optimization completed.
    -- Stationary point found.
 Normal termination of Gaussian 09 at Mon Jan 27 18:08:02 2020.

 ----------------------------------------------------------------------
 #N Geom=AllCheck Guess=TCheck SCRF=Check GenChk RB3LYP/6-31G(2df,p) Fr
 eq
 ----------------------------------------------------------------------

 Structure from the checkpoint file:  "/scratch/puck/g09_1a677aec-3583-4388-9ab6-df4a3d2b642b/Gau-181665.chk"
 -----
 titel
 -----
 Charge =  0 Multiplicity = 1

                         Standard orientation:
 ---------------------------------------------------------------------
 Center     Atomic      Atomic             Coordinates (Angstroms)
 Number     Number       Type             X           Y           Z
 ---------------------------------------------------------------------
      1          8           0       -2.631988   -0.001451   -0.316304
      2          6           0       -1.269245    0.004929   -0.049214
      3          6           0       -0.318152   -0.673233   -1.050359
      4          6           0        0.620787   -0.679684    0.181734
      5          6           0        2.136422   -0.688631   -0.063323
      6          8           0        2.063163    0.752124   -0.344595
      7          6           0        0.839415    0.801014    0.446610
      8          6           0       -0.541990    1.388991    0.098592
      9          6           0       -0.620444   -0.976195    1.048739
     10          1           0       -3.081583    0.504438    0.369016
     11          1           0       -0.642848   -1.681007   -1.319882
     12          1           0       -0.013530   -0.108873   -1.934221
     13          1           0        2.755347   -0.882417    0.822701
     14          1           0        2.514617   -1.252898   -0.920243
     15          1           0        1.114625    1.022361    1.487534
     16          1           0       -0.937872    2.021056    0.899983
     17          1           0       -0.591295    1.944767   -0.840782
     18          1           0       -1.055969   -1.972456    0.949866
     19          1           0       -0.591657   -0.663499    2.096550
 ---------------------------------------------------------------------

 SCF Done:  E(RB3LYP) =  -423.119334804     A.U. after    1 cycles

 The electronic state is 1-A.
 Alpha  occ. eigenvalues --  -19.14773 -19.13372 -10.24984 -10.23491 -10.22644
 Alpha  occ. eigenvalues --  -10.19601 -10.19190 -10.18825 -10.17902  -1.03688
 Alpha  occ. eigenvalues --   -1.03025  -0.87868  -0.73581  -0.69208  -0.67342
 Alpha  occ. eigenvalues --   -0.64186  -0.57308  -0.54169  -0.50918  -0.47960
 Alpha  occ. eigenvalues --   -0.46512  -0.45244  -0.43776  -0.41977  -0.38986
 Alpha  occ. eigenvalues --   -0.37343  -0.36996  -0.36768  -0.32599  -0.32398
 Alpha  occ. eigenvalues --   -0.30221  -0.27289  -0.26800  -0.24417
 Alpha virt. eigenvalues --    0.06907   0.07916   0.09791   0.11047   0.12939
 Alpha virt. eigenvalues --    0.13342   0.13696   0.15114   0.15492   0.15766
 Alpha virt. eigenvalues --    0.16996   0.19334   0.19905   0.21707   0.22032

 Mulliken charges:
               1
     1  O   -0.477420
     2  C    0.412946
     3  C   -0.274936
     4  C    0.279027
     5  C   -0.218873
     6  O   -0.315941
     7  C    0.160326
     8  C   -0.347749
     9  C   -0.403141
    10  H    0.281845
    11  H    0.100670
    12  H    0.105598
    13  H    0.102930
    14  H    0.112414
    15  H    0.069756
    16  H    0.089102
    17  H    0.123463
    18  H    0.108264
    19  H    0.091718
 Sum of Mulliken charges =   0.00000

 Dipole moment (field-independent basis, Debye):
    X=             -0.9491    Y=             -0.3736    Z=              1.6911  Tot=              1.9749
 Quadrupole moment (field-independent basis, Debye-Ang):
   XX=            -56.0273   YY=            -52.4919   ZZ=            -52.2532
   XY=             -6.0576   XZ=             -2.5077   YZ=              1.7395

  Exact polarizability:  84.460  -3.982  71.229  -1.611   2.294  69.735
 Approx polarizability: 117.669  -3.026 107.232  -3.214   2.619 108.267

                      1                      2                      3
                      A                      A                      A
 Frequencies --    205.4192               254.1505               281.1554
 Red. masses --      4.3790                 1.4383                 2.1150
 Frc consts  --      0.1089                 0.0547                 0.0985
 IR Inten    --      1.8585                43.5334                12.4774

                      4                      5                      6
                      A                      A                      A
 Frequencies --    317.6724               384.9527               426.1378
 Red. masses --      2.5115                 2.3151                 3.3221
 Frc consts  --      0.1493                 0.2021                 0.3554
 IR Inten    --     48.0386                 3.0201                 7.6804

                      7                      8                      9
                      A                      A                      A
 Frequencies --    437.7696               515.4178               550.6183
 Red. masses --      2.3143                 2.7390                 2.5915
 Frc consts  --      0.2613                 0.4287                 0.4629
 IR Inten    --      3.8657                 0.6697                 2.0789

                     10                     11                     12
                      A                      A                      A
 Frequencies --    606.3351               656.3668               739.4066
 Red. masses --      3.0559                 3.9184                 3.2145
 Frc consts  --      0.6619                 0.9946                 1.0354
 IR Inten    --      4.4802                 5.5589                 3.5069

                     13                     14                     15
                      A                      A                      A
 Frequencies --    799.0167               840.8463               868.1555
 Red. masses --      2.5369                 3.3486                 3.1384
 Frc consts  --      0.9543                 1.3949                 1.3937
 IR Inten    --      5.3027                20.5773                 3.1060

                     16                     17                     18
                      A                      A                      A
 Frequencies --    903.9593               930.3129               951.3011
 Red. masses --      2.3253                 3.2650                 1.9592
 Frc consts  --      1.1195                 1.6649                 1.0446
 IR Inten    --     18.3610                45.5866                 2.7800

                     19                     20                     21
                      A                      A                      A
 Frequencies --    958.9734              1004.1419              1015.2588
 Red. masses --      1.6067                 2.4565                 1.3538
 Frc consts  --      0.8705                 1.4594                 0.8222
 IR Inten    --      0.4459                 7.0209                 9.7955

                     22                     23                     24
                      A                      A                      A
 Frequencies --   1068.5330              1091.2293              1093.8556
 Red. masses --      2.0081                 1.8625                 2.0615
 Frc consts  --      1.3508                 1.3067                 1.4533
 IR Inten    --      6.1438                47.5603                 1.7266

                     25                     26                     27
                      A                      A                      A
 Frequencies --   1107.0652              1144.0970              1158.4129
 Red. masses --      1.9106                 1.2177                 1.3853
 Frc consts  --      1.3797                 0.9391                 1.0953
 IR Inten    --     27.5352                 4.3382                 1.3333

                     28                     29                     30
                      A                      A                      A
 Frequencies --   1167.6005              1200.1828              1224.0259
 Red. masses --      1.4666                 1.7346                 1.6648
 Frc consts  --      1.1780                 1.4721                 1.4696
 IR Inten    --      6.0960                 4.6793                 0.7599

                     31                     32                     33
                      A                      A                      A
 Frequencies --   1228.0424              1261.9886              1292.4257
 Red. masses --      1.9009                 1.9515                 1.8746
 Frc consts  --      1.6890                 1.8312                 1.8449
 IR Inten    --      2.4216                79.7623               107.6891

                     34                     35                     36
                      A                      A                      A
 Frequencies --   1303.3690              1340.2898              1386.0178
 Red. masses --      2.1335                 2.0902                 1.8756
 Frc consts  --      2.1354                 2.2122                 2.1229
 IR Inten    --     18.4163                26.7096                 0.9995

                     37                     38                     39
                      A                      A                      A
 Frequencies --   1397.5450              1481.6781              1488.1997
 Red. masses --      1.2479                 1.0962                 1.1014
 Frc consts  --      1.4361                 1.4179                 1.4372
 IR Inten    --      7.7211                 1.7586                 2.1981

                     40                     41                     42
                      A                      A                      A
 Frequencies --   1509.9237              1528.0060              2992.1061
 Red. masses --      1.1128                 1.1718                 1.0832
 Frc consts  --      1.4948                 1.6119                 5.7136
 IR Inten    --      0.6747                 2.8324                38.2607

                     43                     44                     45
                      A                      A                      A
 Frequencies --   3016.4984              3051.9141              3055.2815
 Red. masses --      1.0620                 1.0612                 1.0577
 Frc consts  --      5.6933                 5.8238                 5.8170
 IR Inten    --     82.4762                34.4722                56.2446

                     46                     47                     48
                      A                      A                      A
 Frequencies --   3067.2989              3093.1893              3111.2456
 Red. masses --      1.0573                 1.1046                 1.1035
 Frc consts  --      5.8609                 6.2271                 6.2935
 IR Inten    --      7.8753                32.4316                12.2607

                     49                     50                     51
                      A                      A                      A
 Frequencies --   3125.5858              3130.6234              3806.4708
 Red. masses --      1.1096                 1.1092                 1.0658
 Frc consts  --      6.3868                 6.4049                 9.0989
 IR Inten    --     22.6482                30.6199                24.0339

 - Thermochemistry -
 -------------------
 Temperature   298.150 Kelvin.  Pressure   1.00000 Atm.
 Atom     1 has atomic number  8 and mass  15.99491

 Molecular mass:   126.06808 amu.
 Principal axes and moments of inertia in atomic units:
                           1         2         3
     Eigenvalues --   485.252601259.446241393.78479
           X            0.99968  -0.02481  -0.00571
           Y            0.02501   0.99891   0.03942
           Z            0.00472  -0.03955   0.99921
 This molecule is an asymmetric top.
 Rotational symmetry number  1.
 Warning -- assumption of classical behavior for rotation
           may cause significant error
 Rotational temperatures (Kelvin)      0.17849     0.06877     0.06214
 Rotational constants (GHZ):           3.71918     1.43296     1.29485
 Zero-point vibrational energy     422102.8 (Joules/Mol)
                                  100.88498 (Kcal/Mol)
 Warning -- explicit consideration of  10 degrees of freedom as
           vibrations may cause significant error
 Vibrational temperatures:    295.55   365.67   404.52   457.06   553.86
          (Kelvin)            613.12   629.85   741.57   792.22   872.38
                              944.36  1063.84  1149.61  1209.79  1249.08
                             1300.59  1338.51  1368.71  1379.75  1444.73
                             1460.73  1537.38  1570.03  1573.81  1592.82
                             1646.10  1666.70  1679.91  1726.79  1761.10
                             1766.88  1815.72  1859.51  1875.25  1928.38
                             1994.17  2010.75  2131.80  2141.18  2172.44
                             2198.46  4304.97  4340.06  4391.02  4395.86
                             4413.15  4450.40  4476.38  4497.02  4504.26
                             5476.66

 Zero-point correction=                           0.160770 (Hartree/Particle)
 Thermal correction to Energy=                    0.167908
 Thermal correction to Enthalpy=                  0.168852
 Thermal correction to Gibbs Free Energy=         0.129817
 Sum of electronic and zero-point Energies=           -422.958564
 Sum of electronic and thermal Energies=              -422.951427
 Sum of electronic and thermal Enthalpies=            -422.950483
 Sum of electronic and thermal Free Energies=         -422.989518

                     E (Thermal)             CV                S
                      KCal/Mol        Cal/Mol-Kelvin    Cal/Mol-Kelvin
 Total                  105.364             30.128             82.156
 Electronic               0.000              0.000              0.000
 Translational            0.889              2.981             40.409
 Rotational               0.889              2.981             28.234
 Vibrational            103.586             24.167             13.513
 Vibration     1          0.640              1.832              2.084
 Vibration     2          0.665              1.756              1.702
 Vibration     3          0.681              1.709              1.527
 Vibration     4          0.704              1.640              1.322
 Vibration     5          0.754              1.502              1.020
 Vibration     6          0.788              1.413              0.871
 Vibration     7          0.798              1.388              0.834
 Vibration     8          0.870              1.216              0.621
 Vibration     9          0.906              1.138              0.543
 Vibration    10          0.965              1.018              0.439

 Optimization completed.
    -- Stationary point found.
 Normal termination of Gaussian 09 at Mon Jan 27 18:54:52 2020.
