 Gaussian 09, Revision D.01,
 Gaussian 09:  ES64L-G09RevD.01 24-Apr-2013

 -----------------------------
 # b3lyp 6-31G(2df,p) opt Freq
 -----------------------------

 -----
 titel
 -----
 Symbolic Z-matrix:
 Charge =  0 Multiplicity = 1

 SCF Done:  E(RB3LYP) =  -423.185277726     A.U. after   13 cycles
 Optimization completed.
    -- Stationary point found.
 Normal termination of Gaussian 09 at Mon Jan 27 17:01:51 2020.

 ----------------------------------------------------------------------
 #N Geom=AllCheck Guess=TCheck SCRF=Check GenChk RB3LYP/6-31G(2df,p) Fr
 eq
 ----------------------------------------------------------------------

 Structure from the checkpoint file:  "/scratch/puck/g09_648b00b0-a76c-4934-a2f3-b5eb312b3875/Gau-85149.chk"
 -----
 titel
 -----
 Charge =  0 Multiplicity = 1

                         Standard orientation:
 ---------------------------------------------------------------------
 Center     Atomic      Atomic             Coordinates (Angstroms)
 Number     Number       Type             X           Y           Z
 ---------------------------------------------------------------------
      1          8           0        2.182051   -0.559113   -0.555647
      2          6           0        0.916878   -0.188562   -0.126758
      3          6           0        0.282828   -0.762055    1.102799
      4          6           0       -1.132570   -1.249340    0.791702
      5          6           0       -1.272256   -1.068193   -0.742349
      6          6           0       -0.260967    0.034355   -1.102047
      7          8           0       -0.786268    1.334434   -0.814219
      8          6           0       -0.485954    1.691371    0.537922
      9          6           0        0.596171    0.739426    1.008869
     10          1           0        2.590495    0.201419   -0.984495
     11          1           0        0.896003   -1.312972    1.807251
     12          1           0       -1.260177   -2.293507    1.089639
     13          1           0       -1.889304   -0.673401    1.336138
     14          1           0       -0.975373   -1.993725   -1.249029
     15          1           0       -2.283302   -0.811993   -1.068723
     16          1           0        0.039284    0.021312   -2.152975
     17          1           0       -0.135815    2.730796    0.552571
     18          1           0       -1.397257    1.638998    1.152585
     19          1           0        1.384402    1.108499    1.655140
 ---------------------------------------------------------------------

 SCF Done:  E(RB3LYP) =  -423.185277725     A.U. after    1 cycles

 The electronic state is 1-A.
 Alpha  occ. eigenvalues --  -19.14958 -19.12910 -10.23333 -10.22604 -10.22572
 Alpha  occ. eigenvalues --  -10.18986 -10.18964 -10.18257 -10.17583  -1.04048
 Alpha  occ. eigenvalues --   -1.02126  -0.86718  -0.77575  -0.71035  -0.66871
 Alpha  occ. eigenvalues --   -0.58914  -0.58091  -0.54705  -0.54000  -0.48649
 Alpha  occ. eigenvalues --   -0.45073  -0.43516  -0.42627  -0.41881  -0.41062
 Alpha  occ. eigenvalues --   -0.38819  -0.37170  -0.34814  -0.34207  -0.31909
 Alpha  occ. eigenvalues --   -0.29897  -0.27223  -0.26069  -0.23578
 Alpha virt. eigenvalues --    0.07763   0.08176   0.10380   0.11748   0.13022
 Alpha virt. eigenvalues --    0.14021   0.15059   0.15873   0.16252   0.17987
 Alpha virt. eigenvalues --    0.18613   0.19116   0.20532   0.21955   0.23083

 Mulliken charges:
               1
     1  O   -0.472875
     2  C    0.375737
     3  C   -0.089268
     4  C   -0.241225
     5  C   -0.212004
     6  C    0.016979
     7  O   -0.275550
     8  C   -0.096608
     9  C   -0.162881
    10  H    0.284655
    11  H    0.091560
    12  H    0.101723
    13  H    0.106151
    14  H    0.102506
    15  H    0.103135
    16  H    0.077868
    17  H    0.101477
    18  H    0.095741
    19  H    0.092878
 Sum of Mulliken charges =   0.00000

 Dipole moment (field-independent basis, Debye):
    X=              0.5502    Y=              0.2890    Z=              0.6625  Tot=              0.9084
 Quadrupole moment (field-independent basis, Debye-Ang):
   XX=            -52.9452   YY=            -53.5522   ZZ=            -51.7014
   XY=              5.2862   XZ=             -1.8655   YZ=              1.2208

  Exact polarizability:  72.665   2.964  76.021  -1.072   2.021  70.843
 Approx polarizability: 103.899   0.545 110.873  -3.387   1.979 106.125

                      1                      2                      3
                      A                      A                      A
 Frequencies --    115.3007               236.0445               242.3036
 Red. masses --      2.9827                 2.5432                 2.0408
 Frc consts  --      0.0234                 0.0835                 0.0706
 IR Inten    --      4.3212                10.5019                 0.5410

                      4                      5                      6
                      A                      A                      A
 Frequencies --    303.4282               336.0262               403.5578
 Red. masses --      1.9856                 1.7043                 2.9327
 Frc consts  --      0.1077                 0.1134                 0.2814
 IR Inten    --     18.5506                67.7327                 8.8948

                      7                      8                      9
                      A                      A                      A
 Frequencies --    488.8584               568.6651               607.8764
 Red. masses --      2.7927                 4.2179                 3.9572
 Frc consts  --      0.3932                 0.8036                 0.8615
 IR Inten    --      3.4652                 5.9554                 0.8879

                     10                     11                     12
                      A                      A                      A
 Frequencies --    692.2599               712.1414               743.6694
 Red. masses --      2.7525                 3.8686                 5.9175
 Frc consts  --      0.7772                 1.1559                 1.9282
 IR Inten    --      3.8863                 0.9394                 2.7142

                     13                     14                     15
                      A                      A                      A
 Frequencies --    812.3411               849.4962               887.9224
 Red. masses --      2.1049                 2.1117                 2.0890
 Frc consts  --      0.8184                 0.8979                 0.9704
 IR Inten    --      6.3977                 1.5473                16.0210

                     16                     17                     18
                      A                      A                      A
 Frequencies --    912.4441               934.0513               960.5037
 Red. masses --      2.4362                 2.4037                 2.2310
 Frc consts  --      1.1950                 1.2356                 1.2127
 IR Inten    --      1.4254                16.3798                 3.2960

                     19                     20                     21
                      A                      A                      A
 Frequencies --    986.5645              1003.5456              1029.0681
 Red. masses --      2.1359                 1.7789                 2.1403
 Frc consts  --      1.2248                 1.0555                 1.3354
 IR Inten    --     10.2087                14.3134                20.5563

                     22                     23                     24
                      A                      A                      A
 Frequencies --   1060.3415              1069.4830              1090.7116
 Red. masses --      1.7035                 2.2178                 2.2548
 Frc consts  --      1.1285                 1.4946                 1.5804
 IR Inten    --      3.9747                36.3622                 1.0105

                     25                     26                     27
                      A                      A                      A
 Frequencies --   1113.2882              1171.4692              1187.0247
 Red. masses --      2.7062                 1.7970                 1.3275
 Frc consts  --      1.9762                 1.4530                 1.1021
 IR Inten    --     33.7988                36.0408                18.6002

                     28                     29                     30
                      A                      A                      A
 Frequencies --   1201.9085              1224.3507              1249.0439
 Red. masses --      1.7184                 1.0972                 1.7703
 Frc consts  --      1.4626                 0.9690                 1.6273
 IR Inten    --      4.0478                 0.5976                39.6680

                     31                     32                     33
                      A                      A                      A
 Frequencies --   1288.4929              1305.0849              1308.9211
 Red. masses --      1.8311                 1.4764                 1.5363
 Frc consts  --      1.7911                 1.4816                 1.5508
 IR Inten    --      7.7259                 7.9645                39.0487

                     34                     35                     36
                      A                      A                      A
 Frequencies --   1318.7794              1344.8571              1352.9613
 Red. masses --      1.2981                 1.4961                 1.3797
 Frc consts  --      1.3302                 1.5943                 1.4880
 IR Inten    --     17.9524                25.5966                 5.0243

                     37                     38                     39
                      A                      A                      A
 Frequencies --   1385.7622              1468.1110              1477.4769
 Red. masses --      1.4037                 2.3714                 1.2391
 Frc consts  --      1.5881                 3.0115                 1.5936
 IR Inten    --      3.7020                22.2917                 7.8187

                     40                     41                     42
                      A                      A                      A
 Frequencies --   1502.3776              1530.1711              2986.4047
 Red. masses --      1.1035                 1.0869                 1.0677
 Frc consts  --      1.4675                 1.4994                 5.6106
 IR Inten    --      3.5502                 1.8288                68.5707

                     43                     44                     45
                      A                      A                      A
 Frequencies --   3039.9276              3041.6854              3042.1721
 Red. masses --      1.0952                 1.0646                 1.0658
 Frc consts  --      5.9633                 5.8031                 5.8114
 IR Inten    --     50.0099                19.0567                36.7652

                     46                     47                     48
                      A                      A                      A
 Frequencies --   3081.8562              3087.4457              3106.6710
 Red. masses --      1.0896                 1.0950                 1.1022
 Frc consts  --      6.0976                 6.1501                 6.2675
 IR Inten    --     38.3436                23.5925                29.3115

                     49                     50                     51
                      A                      A                      A
 Frequencies --   3173.1924              3183.3783              3789.7729
 Red. masses --      1.0899                 1.0913                 1.0660
 Frc consts  --      6.4658                 6.5161                 9.0208
 IR Inten    --      5.2252                15.2610                19.0659

 - Thermochemistry -
 -------------------
 Temperature   298.150 Kelvin.  Pressure   1.00000 Atm.
 Atom     1 has atomic number  8 and mass  15.99491

 Molecular mass:   126.06808 amu.
 Principal axes and moments of inertia in atomic units:
                           1         2         3
     Eigenvalues --   821.87389 920.375461073.68262
           X            0.97309   0.23036  -0.00506
           Y           -0.22972   0.97163   0.05633
           Z            0.01789  -0.05365   0.99840
 This molecule is an asymmetric top.
 Rotational symmetry number  1.
 Warning -- assumption of classical behavior for rotation
           may cause significant error
 Rotational temperatures (Kelvin)      0.10539     0.09411     0.08067
 Rotational constants (GHZ):           2.19589     1.96087     1.68089
 Zero-point vibrational energy     424729.3 (Joules/Mol)
                                  101.51273 (Kcal/Mol)
 Warning -- explicit consideration of   9 degrees of freedom as
           vibrations may cause significant error
 Vibrational temperatures:    165.89   339.61   348.62   436.56   483.47
          (Kelvin)            580.63   703.36   818.18   874.60   996.01
                             1024.61  1069.97  1168.78  1222.23  1277.52
                             1312.80  1343.89  1381.95  1419.44  1443.88
                             1480.60  1525.59  1538.75  1569.29  1601.77
                             1685.48  1707.86  1729.28  1761.57  1797.09
                             1853.85  1877.72  1883.24  1897.43  1934.95
                             1946.61  1993.80  2112.28  2125.76  2161.58
                             2201.57  4296.76  4373.77  4376.30  4377.00
                             4434.10  4442.14  4469.80  4565.51  4580.17
                             5452.63

 Zero-point correction=                           0.161771 (Hartree/Particle)
 Thermal correction to Energy=                    0.169024
 Thermal correction to Enthalpy=                  0.169968
 Thermal correction to Gibbs Free Energy=         0.130386
 Sum of electronic and zero-point Energies=           -423.023507
 Sum of electronic and thermal Energies=              -423.016254
 Sum of electronic and thermal Enthalpies=            -423.015310
 Sum of electronic and thermal Free Energies=         -423.054892

                     E (Thermal)             CV                S
                      KCal/Mol        Cal/Mol-Kelvin    Cal/Mol-Kelvin
 Total                  106.064             29.611             83.308
 Electronic               0.000              0.000              0.000
 Translational            0.889              2.981             40.409
 Rotational               0.889              2.981             28.187
 Vibrational            104.286             23.649             14.712
 Vibration     1          0.608              1.937              3.178
 Vibration     2          0.655              1.786              1.833
 Vibration     3          0.659              1.775              1.786
 Vibration     4          0.695              1.667              1.398
 Vibration     5          0.717              1.604              1.231
 Vibration     6          0.769              1.462              0.950
 Vibration     7          0.845              1.275              0.687
 Vibration     8          0.925              1.099              0.507
 Vibration     9          0.967              1.015              0.436

 Normal termination of Gaussian 09 at Mon Jan 27 17:49:57 2020.
