 Gaussian 09, Revision D.01,
 Gaussian 09:  ES64L-G09RevD.01 24-Apr-2013

 -----------------------------
 # b3lyp 6-31G(2df,p) opt Freq
 -----------------------------

 -----
 titel
 -----
 Symbolic Z-matrix:
 Charge =  0 Multiplicity = 1

 SCF Done:  E(RB3LYP) =  -423.184826714     A.U. after   13 cycles
 Optimization completed.
    -- Stationary point found.
 Normal termination of Gaussian 09 at Mon Jan 27 19:04:21 2020.

 ----------------------------------------------------------------------
 #N Geom=AllCheck Guess=TCheck SCRF=Check GenChk RB3LYP/6-31G(2df,p) Fr
 eq
 ----------------------------------------------------------------------

 Structure from the checkpoint file:  "/scratch/puck/g09_6fbdd913-e604-4522-b598-bee850d36b04/Gau-65169.chk"
 -----
 titel
 -----
 Charge =  0 Multiplicity = 1

                         Standard orientation:
 ---------------------------------------------------------------------
 Center     Atomic      Atomic             Coordinates (Angstroms)
 Number     Number       Type             X           Y           Z
 ---------------------------------------------------------------------
      1          8           0        2.466013   -0.356334    0.173554
      2          6           0        1.108783   -0.110151   -0.033932
      3          6           0        0.720939    1.171258   -0.760900
      4          8           0       -0.474818    1.645830   -0.154677
      5          6           0       -0.999662    0.666963    0.760200
      6          6           0       -2.032928   -0.212456    0.036939
      7          6           0       -1.177032   -1.196965   -0.800898
      8          6           0        0.149511   -1.287546   -0.041229
      9          6           0        0.151765   -0.282541    1.101553
     10          1           0        2.813430   -0.798450   -0.608312
     11          1           0        1.522942    1.908415   -0.629082
     12          1           0        0.561736    1.026656   -1.840333
     13          1           0       -1.412297    1.206051    1.616523
     14          1           0       -2.615924   -0.767708    0.781300
     15          1           0       -2.724686    0.388784   -0.558625
     16          1           0       -1.647438   -2.180816   -0.879091
     17          1           0       -1.039717   -0.832536   -1.825264
     18          1           0        0.616146   -2.255394    0.108991
     19          1           0        0.467986   -0.502348    2.112475
 ---------------------------------------------------------------------

 SCF Done:  E(RB3LYP) =  -423.184826714     A.U. after    1 cycles

 The electronic state is 1-A.
 Alpha  occ. eigenvalues --  -19.14893 -19.12817 -10.23946 -10.22859 -10.22165
 Alpha  occ. eigenvalues --  -10.19093 -10.18459 -10.18398 -10.17625  -1.04060
 Alpha  occ. eigenvalues --   -1.02092  -0.86744  -0.77100  -0.71544  -0.66892
 Alpha  occ. eigenvalues --   -0.58682  -0.57246  -0.55948  -0.53554  -0.47863
 Alpha  occ. eigenvalues --   -0.46640  -0.43783  -0.42863  -0.41859  -0.40809
 Alpha  occ. eigenvalues --   -0.38624  -0.36067  -0.34616  -0.33995  -0.32956
 Alpha  occ. eigenvalues --   -0.29697  -0.27130  -0.25794  -0.24016
 Alpha virt. eigenvalues --    0.06763   0.08534   0.10641   0.11633   0.13671
 Alpha virt. eigenvalues --    0.14586   0.15168   0.15773   0.16338   0.17929
 Alpha virt. eigenvalues --    0.18583   0.18813   0.19789   0.20383   0.23881

 Mulliken charges:
               1
     1  O   -0.475142
     2  C    0.375911
     3  C   -0.149851
     4  O   -0.276840
     5  C    0.089533
     6  C   -0.201429
     7  C   -0.244923
     8  C   -0.120374
     9  C   -0.143110
    10  H    0.284918
    11  H    0.107395
    12  H    0.087950
    13  H    0.079843
    14  H    0.095450
    15  H    0.103957
    16  H    0.100246
    17  H    0.104905
    18  H    0.084805
    19  H    0.096755
 Sum of Mulliken charges =   0.00000

 Dipole moment (field-independent basis, Debye):
    X=              0.0255    Y=             -1.8928    Z=             -0.7787  Tot=              2.0469
 Quadrupole moment (field-independent basis, Debye-Ang):
   XX=            -52.5977   YY=            -54.8890   ZZ=            -50.6351
   XY=             -0.2689   XZ=             -4.6787   YZ=              1.1539

  Exact polarizability:  80.644   1.807  70.652  -3.048   0.696  68.582
 Approx polarizability: 110.513   1.310 104.396  -5.011   1.354 105.952

                      1                      2                      3
                      A                      A                      A
 Frequencies --    101.2973               205.5342               244.0753
 Red. masses --      3.0676                 2.1918                 1.5941
 Frc consts  --      0.0185                 0.0546                 0.0560
 IR Inten    --      4.0330                 0.8311                45.0014

                      4                      5                      6
                      A                      A                      A
 Frequencies --    307.3355               342.9631               398.6165
 Red. masses --      1.5664                 3.8622                 3.0272
 Frc consts  --      0.0872                 0.2677                 0.2834
 IR Inten    --     42.7586                 7.6988                 6.3716

                      7                      8                      9
                      A                      A                      A
 Frequencies --    450.7580               552.9226               618.9947
 Red. masses --      2.5862                 4.2581                 4.8946
 Frc consts  --      0.3096                 0.7670                 1.1049
 IR Inten    --      6.4986                 1.1786                 2.1911

                     10                     11                     12
                      A                      A                      A
 Frequencies --    696.5825               707.3752               785.6357
 Red. masses --      3.1293                 4.0452                 2.6677
 Frc consts  --      0.8946                 1.1926                 0.9701
 IR Inten    --      0.4230                 2.1842                 0.9625

                     13                     14                     15
                      A                      A                      A
 Frequencies --    824.6341               857.7627               893.1311
 Red. masses --      2.0170                 2.4224                 2.8087
 Frc consts  --      0.8081                 1.0501                 1.3200
 IR Inten    --      8.6717                 6.8175                 8.3066

                     16                     17                     18
                      A                      A                      A
 Frequencies --    904.4756               933.4635               948.6109
 Red. masses --      2.2298                 2.4676                 2.1174
 Frc consts  --      1.0748                 1.2668                 1.1226
 IR Inten    --     14.2666                14.4092                 6.1452

                     19                     20                     21
                      A                      A                      A
 Frequencies --    972.9760               995.7439              1026.5720
 Red. masses --      2.0417                 1.7935                 1.4036
 Frc consts  --      1.1388                 1.0477                 0.8715
 IR Inten    --      4.8428                 3.1108                 8.8598

                     22                     23                     24
                      A                      A                      A
 Frequencies --   1047.7536              1055.2659              1076.9361
 Red. masses --      2.0413                 1.9667                 2.2252
 Frc consts  --      1.3203                 1.2904                 1.5206
 IR Inten    --      4.2427                14.4700                23.0369

                     25                     26                     27
                      A                      A                      A
 Frequencies --   1090.3858              1180.3152              1184.0894
 Red. masses --      4.4579                 1.5169                 1.5642
 Frc consts  --      3.1228                 1.2451                 1.2922
 IR Inten    --     95.8028                 7.1652                37.7309

                     28                     29                     30
                      A                      A                      A
 Frequencies --   1204.0765              1219.1701              1265.2132
 Red. masses --      1.4149                 1.2763                 1.8937
 Frc consts  --      1.2086                 1.1178                 1.7860
 IR Inten    --      3.3479                 2.0563                10.7084

                     31                     32                     33
                      A                      A                      A
 Frequencies --   1282.5101              1291.4494              1302.2957
 Red. masses --      1.5748                 1.2880                 1.7263
 Frc consts  --      1.5262                 1.2657                 1.7250
 IR Inten    --      1.3161                 1.5729                82.0998

                     34                     35                     36
                      A                      A                      A
 Frequencies --   1327.4960              1341.1615              1345.5712
 Red. masses --      1.4886                 1.5375                 1.4731
 Frc consts  --      1.5456                 1.6294                 1.5715
 IR Inten    --      5.6336                16.3996                 2.0196

                     37                     38                     39
                      A                      A                      A
 Frequencies --   1370.9987              1447.0553              1476.4353
 Red. masses --      1.6151                 2.3689                 1.1080
 Frc consts  --      1.7887                 2.9226                 1.4230
 IR Inten    --      2.1487                 7.7772                 0.7565

                     40                     41                     42
                      A                      A                      A
 Frequencies --   1499.9523              1525.2103              2981.5939
 Red. masses --      1.0952                 1.0849                 1.0662
 Frc consts  --      1.4518                 1.4869                 5.5843
 IR Inten    --      2.0720                 2.0171                67.3995

                     43                     44                     45
                      A                      A                      A
 Frequencies --   3038.0307              3040.1398              3041.3979
 Red. masses --      1.0659                 1.0967                 1.0646
 Frc consts  --      5.7961                 5.9718                 5.8020
 IR Inten    --     23.4951                42.7642                35.2156

                     46                     47                     48
                      A                      A                      A
 Frequencies --   3082.9914              3087.0924              3105.3896
 Red. masses --      1.0910                 1.0942                 1.1013
 Frc consts  --      6.1097                 6.1437                 6.2576
 IR Inten    --     38.6142                29.8182                29.6433

                     49                     50                     51
                      A                      A                      A
 Frequencies --   3167.1054              3205.1336              3803.9744
 Red. masses --      1.0897                 1.0938                 1.0663
 Frc consts  --      6.4398                 6.6205                 9.0910
 IR Inten    --     13.8431                 5.9617                23.2017

 - Thermochemistry -
 -------------------
 Temperature   298.150 Kelvin.  Pressure   1.00000 Atm.
 Atom     1 has atomic number  8 and mass  15.99491

 Molecular mass:   126.06808 amu.
 Principal axes and moments of inertia in atomic units:
                           1         2         3
     Eigenvalues --   634.172601019.547531272.34653
           X            0.99945   0.03130  -0.01125
           Y           -0.03119   0.99947   0.00919
           Z            0.01154  -0.00883   0.99989
 This molecule is an asymmetric top.
 Rotational symmetry number  1.
 Warning -- assumption of classical behavior for rotation
           may cause significant error
 Rotational temperatures (Kelvin)      0.13658     0.08495     0.06807
 Rotational constants (GHZ):           2.84582     1.77014     1.41844
 Zero-point vibrational energy     423810.9 (Joules/Mol)
                                  101.29324 (Kcal/Mol)
 Warning -- explicit consideration of   9 degrees of freedom as
           vibrations may cause significant error
 Vibrational temperatures:    145.74   295.72   351.17   442.19   493.45
          (Kelvin)            573.52   648.54   795.53   890.59  1002.23
                             1017.75  1130.35  1186.46  1234.13  1285.01
                             1301.34  1343.04  1364.84  1399.89  1432.65
                             1477.01  1507.48  1518.29  1549.47  1568.82
                             1698.21  1703.64  1732.40  1754.11  1820.36
                             1845.24  1858.11  1873.71  1909.97  1929.63
                             1935.97  1972.56  2081.99  2124.26  2158.09
                             2194.43  4289.84  4371.04  4374.08  4375.89
                             4435.73  4441.63  4467.96  4556.75  4611.47
                             5473.06

 Zero-point correction=                           0.161421 (Hartree/Particle)
 Thermal correction to Energy=                    0.168765
 Thermal correction to Enthalpy=                  0.169710
 Thermal correction to Gibbs Free Energy=         0.129857
 Sum of electronic and zero-point Energies=           -423.023406
 Sum of electronic and thermal Energies=              -423.016061
 Sum of electronic and thermal Enthalpies=            -423.015117
 Sum of electronic and thermal Free Energies=         -423.054970

                     E (Thermal)             CV                S
                      KCal/Mol        Cal/Mol-Kelvin    Cal/Mol-Kelvin
 Total                  105.902             29.765             83.877
 Electronic               0.000              0.000              0.000
 Translational            0.889              2.981             40.409
 Rotational               0.889              2.981             28.200
 Vibrational            104.124             23.803             15.269
 Vibration     1          0.604              1.948              3.429
 Vibration     2          0.640              1.832              2.083
 Vibration     3          0.659              1.773              1.773
 Vibration     4          0.697              1.660              1.377
 Vibration     5          0.722              1.590              1.198
 Vibration     6          0.765              1.473              0.968
 Vibration     7          0.810              1.359              0.793
 Vibration     8          0.908              1.133              0.538
 Vibration     9          0.979              0.992              0.418

 Optimization completed.
    -- Stationary point found.
 Normal termination of Gaussian 09 at Mon Jan 27 19:49:21 2020.
