 Gaussian 09, Revision D.01,
 Gaussian 09:  ES64L-G09RevD.01 24-Apr-2013

 -----------------------------
 # b3lyp 6-31G(2df,p) opt Freq
 -----------------------------

 -----
 titel
 -----
 Symbolic Z-matrix:
 Charge =  0 Multiplicity = 1

 SCF Done:  E(RB3LYP) =  -423.152615836     A.U. after   14 cycles
 Optimization completed.
    -- Stationary point found.
 Normal termination of Gaussian 09 at Tue Jan 28 09:58:40 2020.

 ----------------------------------------------------------------------
 #N Geom=AllCheck Guess=TCheck SCRF=Check GenChk RB3LYP/6-31G(2df,p) Fr
 eq
 ----------------------------------------------------------------------

 Structure from the checkpoint file:  "/scratch/puck/g09_9746f8d2-d37e-411c-b0c5-80de61d42aef/Gau-21553.chk"
 -----
 titel
 -----
 Charge =  0 Multiplicity = 1

                         Standard orientation:
 ---------------------------------------------------------------------
 Center     Atomic      Atomic             Coordinates (Angstroms)
 Number     Number       Type             X           Y           Z
 ---------------------------------------------------------------------
      1          8           0       -2.687235    0.245893   -0.351301
      2          6           0       -1.813947   -0.218178    0.661498
      3          6           0       -0.372898    0.010006    0.267698
      4          6           0        0.133974    1.439977    0.099722
      5          6           0        1.636444    1.242967   -0.249384
      6          6           0        1.933279   -0.198244    0.173508
      7          6           0        1.052009   -1.271843   -0.433577
      8          8           0       -0.110548   -0.684033   -1.020248
      9          6           0        0.767268   -0.783410    0.949094
     10          1           0       -2.403168   -0.190862   -1.163868
     11          1           0       -2.052936    0.340716    1.573205
     12          1           0       -1.968443   -1.288117    0.869058
     13          1           0       -0.425588    1.970715   -0.673517
     14          1           0        0.012977    1.985532    1.043082
     15          1           0        1.818385    1.387334   -1.318283
     16          1           0        2.273957    1.948909    0.289900
     17          1           0        2.940111   -0.496456    0.445193
     18          1           0        1.394723   -2.222856   -0.824541
     19          1           0        0.775466   -1.257448    1.920815
 ---------------------------------------------------------------------

 SCF Done:  E(RB3LYP) =  -423.152615836     A.U. after    1 cycles

 The electronic state is 1-A.
 Alpha  occ. eigenvalues --  -19.13680 -19.13182 -10.23998 -10.23960 -10.22685
 Alpha  occ. eigenvalues --  -10.19423 -10.19163 -10.18403 -10.18020  -1.05456
 Alpha  occ. eigenvalues --   -1.01203  -0.84824  -0.77434  -0.72828  -0.65245
 Alpha  occ. eigenvalues --   -0.60853  -0.56817  -0.53517  -0.52580  -0.48595
 Alpha  occ. eigenvalues --   -0.47950  -0.45203  -0.43434  -0.41990  -0.40545
 Alpha  occ. eigenvalues --   -0.36714  -0.35889  -0.34687  -0.34107  -0.33186
 Alpha  occ. eigenvalues --   -0.30622  -0.27393  -0.26781  -0.22962
 Alpha virt. eigenvalues --    0.07066   0.10481   0.10538   0.11444   0.12186
 Alpha virt. eigenvalues --    0.12499   0.13933   0.15640   0.15999   0.16407
 Alpha virt. eigenvalues --    0.17994   0.18648   0.20646   0.20969   0.22074

 Mulliken charges:
               1
     1  O   -0.419815
     2  C   -0.155594
     3  C    0.406965
     4  C   -0.234646
     5  C   -0.236658
     6  C   -0.087012
     7  C    0.097170
     8  O   -0.357989
     9  C   -0.218313
    10  H    0.296576
    11  H    0.107452
    12  H    0.091607
    13  H    0.115846
    14  H    0.097480
    15  H    0.111352
    16  H    0.100284
    17  H    0.088966
    18  H    0.101567
    19  H    0.094760
 Sum of Mulliken charges =   0.00000

 Dipole moment (field-independent basis, Debye):
    X=              1.9169    Y=             -0.6655    Z=              1.1446  Tot=              2.3297
 Quadrupole moment (field-independent basis, Debye-Ang):
   XX=            -56.5867   YY=            -51.3846   ZZ=            -51.6564
   XY=              0.8073   XZ=              0.0863   YZ=             -0.0440

  Exact polarizability:  80.663  -0.980  72.719  -1.368   0.166  66.315
 Approx polarizability: 109.491  -2.501 104.323   0.092   3.095 108.422

                      1                      2                      3
                      A                      A                      A
 Frequencies --     98.7078               161.9031               219.6366
 Red. masses --      3.7633                 3.2370                 2.2528
 Frc consts  --      0.0216                 0.0500                 0.0640
 IR Inten    --      4.5397                 0.1978                 0.4771

                      4                      5                      6
                      A                      A                      A
 Frequencies --    298.2722               369.0687               419.3647
 Red. masses --      2.0740                 3.1153                 3.4551
 Frc consts  --      0.1087                 0.2500                 0.3580
 IR Inten    --      3.6146                 1.0423                 3.9809

                      7                      8                      9
                      A                      A                      A
 Frequencies --    456.9303               496.3385               636.9000
 Red. masses --      1.1835                 3.4550                 3.8939
 Frc consts  --      0.1456                 0.5015                 0.9306
 IR Inten    --    128.9129                 0.4780                15.0267

                     10                     11                     12
                      A                      A                      A
 Frequencies --    690.6214               745.3250               756.7981
 Red. masses --      3.9581                 2.7783                 2.5414
 Frc consts  --      1.1123                 0.9093                 0.8576
 IR Inten    --      7.4649                 5.2092                13.0522

                     13                     14                     15
                      A                      A                      A
 Frequencies --    804.0807               817.3268               856.5044
 Red. masses --      2.1507                 1.6027                 2.4147
 Frc consts  --      0.8193                 0.6308                 1.0437
 IR Inten    --      5.8422                 3.2241                 2.1711

                     16                     17                     18
                      A                      A                      A
 Frequencies --    865.5315               915.3263               933.3067
 Red. masses --      2.3955                 1.6566                 2.2227
 Frc consts  --      1.0573                 0.8177                 1.1407
 IR Inten    --     31.6089                 2.7612                 1.1060

                     19                     20                     21
                      A                      A                      A
 Frequencies --    982.8839              1010.2862              1024.5285
 Red. masses --      1.5820                 2.7442                 2.2465
 Frc consts  --      0.9005                 1.6502                 1.3893
 IR Inten    --      1.3997                51.7490                21.2112

                     22                     23                     24
                      A                      A                      A
 Frequencies --   1036.8291              1044.8428              1076.8300
 Red. masses --      3.4456                 1.4321                 3.8542
 Frc consts  --      2.1824                 0.9211                 2.6331
 IR Inten    --     56.8203                 3.2288                48.5928

                     25                     26                     27
                      A                      A                      A
 Frequencies --   1090.7273              1096.7275              1156.0533
 Red. masses --      1.4551                 2.1940                 1.6316
 Frc consts  --      1.0200                 1.5549                 1.2847
 IR Inten    --      8.0518                 7.1639                 4.8181

                     28                     29                     30
                      A                      A                      A
 Frequencies --   1182.4304              1204.3587              1229.9363
 Red. masses --      1.7296                 1.6178                 1.4833
 Frc consts  --      1.4248                 1.3826                 1.3221
 IR Inten    --      1.2466                 0.8529                 3.0749

                     31                     32                     33
                      A                      A                      A
 Frequencies --   1249.9695              1274.9421              1301.1840
 Red. masses --      1.5566                 1.4320                 1.7703
 Frc consts  --      1.4329                 1.3715                 1.7659
 IR Inten    --      7.4200                 5.7520                 8.5899

                     34                     35                     36
                      A                      A                      A
 Frequencies --   1314.3794              1353.0632              1381.0374
 Red. masses --      1.4952                 1.8357                 1.6673
 Frc consts  --      1.5220                 1.9801                 1.8736
 IR Inten    --     13.5522                 9.2035                 4.1687

                     37                     38                     39
                      A                      A                      A
 Frequencies --   1400.7651              1435.1772              1476.6417
 Red. masses --      1.9015                 1.3670                 1.0930
 Frc consts  --      2.1983                 1.6590                 1.4041
 IR Inten    --     11.3738                54.5521                 1.2265

                     40                     41                     42
                      A                      A                      A
 Frequencies --   1497.1167              1499.7030              2987.5494
 Red. masses --      1.0930                 1.1002                 1.0680
 Frc consts  --      1.4433                 1.4579                 5.6164
 IR Inten    --      0.8628                 1.1654                51.2075

                     43                     44                     45
                      A                      A                      A
 Frequencies --   3040.3824              3057.6291              3069.5674
 Red. masses --      1.0664                 1.0604                 1.0941
 Frc consts  --      5.8081                 5.8413                 6.0736
 IR Inten    --     21.2332                37.1099                29.9891

                     46                     47                     48
                      A                      A                      A
 Frequencies --   3093.9179              3116.1329              3173.1126
 Red. masses --      1.1027                 1.0996                 1.0894
 Frc consts  --      6.2190                 6.2908                 6.4626
 IR Inten    --     13.4736                22.3277                 7.6554

                     49                     50                     51
                      A                      A                      A
 Frequencies --   3181.3764              3207.4989              3786.8432
 Red. masses --      1.0913                 1.0992                 1.0655
 Frc consts  --      6.5079                 6.6627                 9.0021
 IR Inten    --     31.3841                11.4081                25.1252

 - Thermochemistry -
 -------------------
 Temperature   298.150 Kelvin.  Pressure   1.00000 Atm.
 Atom     1 has atomic number  8 and mass  15.99491

 Molecular mass:   126.06808 amu.
 Principal axes and moments of inertia in atomic units:
                           1         2         3
     Eigenvalues --   548.167501213.905121394.00514
           X            0.99985   0.01530  -0.00831
           Y           -0.01557   0.99934  -0.03283
           Z            0.00780   0.03295   0.99943
 This molecule is an asymmetric top.
 Rotational symmetry number  1.
 Warning -- assumption of classical behavior for rotation
           may cause significant error
 Rotational temperatures (Kelvin)      0.15801     0.07135     0.06213
 Rotational constants (GHZ):           3.29232     1.48672     1.29464
 Zero-point vibrational energy     422140.4 (Joules/Mol)
                                  100.89398 (Kcal/Mol)
 Warning -- explicit consideration of   8 degrees of freedom as
           vibrations may cause significant error
 Vibrational temperatures:    142.02   232.94   316.01   429.15   531.01
          (Kelvin)            603.37   657.42   714.12   916.36   993.65
                             1072.36  1088.86  1156.89  1175.95  1232.32
                             1245.31  1316.95  1342.82  1414.15  1453.57
                             1474.07  1491.76  1503.29  1549.32  1569.31
                             1577.94  1663.30  1701.25  1732.80  1769.60
                             1798.43  1834.36  1872.11  1891.10  1946.75
                             1987.00  2015.39  2064.90  2124.56  2154.01
                             2157.74  4298.41  4374.43  4399.24  4416.42
                             4451.45  4483.41  4565.40  4577.29  4614.87
                             5448.42

 Zero-point correction=                           0.160785 (Hartree/Particle)
 Thermal correction to Energy=                    0.168279
 Thermal correction to Enthalpy=                  0.169223
 Thermal correction to Gibbs Free Energy=         0.128951
 Sum of electronic and zero-point Energies=           -422.991831
 Sum of electronic and thermal Energies=              -422.984337
 Sum of electronic and thermal Enthalpies=            -422.983393
 Sum of electronic and thermal Free Energies=         -423.023665

                     E (Thermal)             CV                S
                      KCal/Mol        Cal/Mol-Kelvin    Cal/Mol-Kelvin
 Total                  105.597             30.229             84.760
 Electronic               0.000              0.000              0.000
 Translational            0.889              2.981             40.409
 Rotational               0.889              2.981             28.319
 Vibrational            103.819             24.267             16.033
 Vibration     1          0.604              1.950              3.480
 Vibration     2          0.622              1.889              2.527
 Vibration     3          0.647              1.811              1.962
 Vibration     4          0.691              1.677              1.427
 Vibration     5          0.741              1.536              1.084
 Vibration     6          0.782              1.428              0.894
 Vibration     7          0.815              1.346              0.775
 Vibration     8          0.852              1.258              0.667

 Optimization completed.
    -- Stationary point found.
 Normal termination of Gaussian 09 at Tue Jan 28 10:45:33 2020.
