 Gaussian 09, Revision D.01,
 Gaussian 09:  ES64L-G09RevD.01 24-Apr-2013

 -----------------------------
 # b3lyp 6-31G(2df,p) opt Freq
 -----------------------------

 -----
 titel
 -----
 Symbolic Z-matrix:
 Charge =  0 Multiplicity = 1

 SCF Done:  E(RB3LYP) =  -423.189974402     A.U. after   14 cycles
 Optimization completed.
    -- Stationary point found.
 Normal termination of Gaussian 09 at Tue Jan 28 09:15:39 2020.

 ----------------------------------------------------------------------
 #N Geom=AllCheck Guess=TCheck SCRF=Check GenChk RB3LYP/6-31G(2df,p) Fr
 eq
 ----------------------------------------------------------------------

 Structure from the checkpoint file:  "/scratch/puck/g09_72de5ad0-1db0-430a-bd8f-01e20c8e4dc1/Gau-57773.chk"
 -----
 titel
 -----
 Charge =  0 Multiplicity = 1

                         Standard orientation:
 ---------------------------------------------------------------------
 Center     Atomic      Atomic             Coordinates (Angstroms)
 Number     Number       Type             X           Y           Z
 ---------------------------------------------------------------------
      1          6           0        2.837277   -0.082143   -0.041233
      2          6           0        1.597002    0.815154   -0.039256
      3          6           0        0.294585    0.074031    0.058948
      4          6           0       -0.071737   -1.050598    1.069201
      5          6           0       -1.019791   -1.396578   -0.097762
      6          6           0       -2.055817   -0.258804   -0.107937
      7          6           0       -1.022514    0.880692    0.031442
      8          8           0       -1.179950    2.068050    0.090530
      9          8           0       -0.012991   -0.878466   -1.028771
     10          1           0        2.942308   -0.625662    0.903425
     11          1           0        2.781750   -0.817409   -0.848702
     12          1           0        3.743494    0.513502   -0.182333
     13          1           0        1.632365    1.532311    0.789791
     14          1           0        1.563794    1.418996   -0.954254
     15          1           0        0.738202   -1.773446    1.171734
     16          1           0       -0.494684   -0.780460    2.040935
     17          1           0       -1.345615   -2.411886   -0.318099
     18          1           0       -2.598465   -0.197304   -1.054280
     19          1           0       -2.773641   -0.265828    0.717295
 ---------------------------------------------------------------------

 SCF Done:  E(RB3LYP) =  -423.189974402     A.U. after    1 cycles

 The electronic state is 1-A.
 Alpha  occ. eigenvalues --  -19.14683 -19.13852 -10.27024 -10.25152 -10.24785
 Alpha  occ. eigenvalues --  -10.20226 -10.19568 -10.19004 -10.17848  -1.06467
 Alpha  occ. eigenvalues --   -1.04142  -0.79907  -0.78730  -0.71896  -0.69296
 Alpha  occ. eigenvalues --   -0.62186  -0.57449  -0.51296  -0.49844  -0.47726
 Alpha  occ. eigenvalues --   -0.46734  -0.45988  -0.43033  -0.41589  -0.40805
 Alpha  occ. eigenvalues --   -0.39143  -0.37488  -0.36322  -0.35651  -0.35187
 Alpha  occ. eigenvalues --   -0.33314  -0.32336  -0.28204  -0.22895
 Alpha virt. eigenvalues --   -0.01608   0.08706   0.09417   0.10710   0.11807
 Alpha virt. eigenvalues --    0.13370   0.14014   0.14814   0.15299   0.15951
 Alpha virt. eigenvalues --    0.17157   0.18090   0.19106   0.20603   0.21729

 Mulliken charges:
               1
     1  C   -0.397475
     2  C   -0.294404
     3  C    0.303032
     4  C   -0.290508
     5  C    0.074239
     6  C   -0.342990
     7  C    0.422795
     8  O   -0.332790
     9  O   -0.334290
    10  H    0.114974
    11  H    0.136069
    12  H    0.116772
    13  H    0.118850
    14  H    0.122960
    15  H    0.121796
    16  H    0.107072
    17  H    0.090757
    18  H    0.137901
    19  H    0.125239
 Sum of Mulliken charges =   0.00000

 Dipole moment (field-independent basis, Debye):
    X=              0.1632    Y=             -2.2551    Z=              1.3491  Tot=              2.6329
 Quadrupole moment (field-independent basis, Debye-Ang):
   XX=            -50.2389   YY=            -58.0374   ZZ=            -53.3107
   XY=              5.1632   XZ=              0.4447   YZ=             -1.8240

  Exact polarizability:  85.039   2.004  77.131   0.710  -0.775  62.447
 Approx polarizability: 108.627   0.611 121.227  -1.240   2.274 101.207

                      1                      2                      3
                      A                      A                      A
 Frequencies --     76.5567               138.7775               158.8366
 Red. masses --      2.1297                 3.9205                 3.4503
 Frc consts  --      0.0074                 0.0445                 0.0513
 IR Inten    --      0.3194                 4.9466                 2.0882

                      4                      5                      6
                      A                      A                      A
 Frequencies --    216.3591               310.2812               324.6588
 Red. masses --      1.2320                 3.9800                 2.0687
 Frc consts  --      0.0340                 0.2258                 0.1285
 IR Inten    --      1.1712                 3.8048                 1.8348

                      7                      8                      9
                      A                      A                      A
 Frequencies --    392.5485               466.6387               562.2311
 Red. masses --      1.8619                 3.7905                 3.5888
 Frc consts  --      0.1690                 0.4863                 0.6684
 IR Inten    --      1.8887                 2.6274                 5.2451

                     10                     11                     12
                      A                      A                      A
 Frequencies --    599.3876               635.1302               659.5734
 Red. masses --      3.2415                 3.1163                 4.0163
 Frc consts  --      0.6861                 0.7406                 1.0294
 IR Inten    --      2.4730                 2.8409                 8.8334

                     13                     14                     15
                      A                      A                      A
 Frequencies --    750.4894               785.4899               833.4920
 Red. masses --      1.5347                 2.6750                 3.1985
 Frc consts  --      0.5093                 0.9724                 1.3092
 IR Inten    --      3.6753                 7.1964                19.2371

                     16                     17                     18
                      A                      A                      A
 Frequencies --    848.3266               888.7324               921.6224
 Red. masses --      2.7359                 2.5571                 2.4537
 Frc consts  --      1.1601                 1.1900                 1.2280
 IR Inten    --      4.9116                24.6311                 4.3312

                     19                     20                     21
                      A                      A                      A
 Frequencies --    964.4717               978.4571               995.5884
 Red. masses --      2.4261                 1.7559                 2.3820
 Frc consts  --      1.3297                 0.9905                 1.3911
 IR Inten    --     27.1324                 8.9902                 5.1529

                     22                     23                     24
                      A                      A                      A
 Frequencies --   1011.7065              1075.9742              1082.2048
 Red. masses --      1.8627                 2.8594                 1.4313
 Frc consts  --      1.1233                 1.9504                 0.9876
 IR Inten    --     15.8589                27.1599                12.0316

                     25                     26                     27
                      A                      A                      A
 Frequencies --   1130.1774              1136.9921              1180.7440
 Red. masses --      1.2267                 1.8482                 2.4292
 Frc consts  --      0.9232                 1.4077                 1.9954
 IR Inten    --      1.2374                 2.8001                 5.6933

                     28                     29                     30
                      A                      A                      A
 Frequencies --   1202.5613              1260.2671              1269.4275
 Red. masses --      1.5758                 1.6653                 1.4488
 Frc consts  --      1.3427                 1.5584                 1.3755
 IR Inten    --      6.3607                11.7823                 2.0424

                     31                     32                     33
                      A                      A                      A
 Frequencies --   1280.4273              1310.8072              1333.6690
 Red. masses --      1.7595                 1.3228                 1.7330
 Frc consts  --      1.6996                 1.3391                 1.8162
 IR Inten    --     14.7212                 5.2771                 1.6584

                     34                     35                     36
                      A                      A                      A
 Frequencies --   1400.9687              1412.5519              1450.3281
 Red. masses --      2.3136                 1.2362                 1.1011
 Frc consts  --      2.6754                 1.4533                 1.3646
 IR Inten    --      0.8018                 2.2357                 6.2202

                     37                     38                     39
                      A                      A                      A
 Frequencies --   1466.7772              1487.0953              1499.7078
 Red. masses --      1.0758                 1.1780                 1.0391
 Frc consts  --      1.3637                 1.5348                 1.3770
 IR Inten    --      2.8012                 2.6160                 6.1271

                     40                     41                     42
                      A                      A                      A
 Frequencies --   1509.6683              1876.9977              3036.5994
 Red. masses --      1.0646                12.9295                 1.0600
 Frc consts  --      1.4295                26.8386                 5.7586
 IR Inten    --      5.1006               222.0304                 9.4641

                     43                     44                     45
                      A                      A                      A
 Frequencies --   3042.1154              3062.8576              3068.7832
 Red. masses --      1.0365                 1.0598                 1.0593
 Frc consts  --      5.6517                 5.8580                 5.8775
 IR Inten    --     23.5989                20.7310                 9.8441

                     46                     47                     48
                      A                      A                      A
 Frequencies --   3069.4207              3108.7361              3121.3337
 Red. masses --      1.0999                 1.1009                 1.1045
 Frc consts  --      6.1057                 6.2684                 6.3401
 IR Inten    --      5.1410                34.5707                 6.6395

                     49                     50                     51
                      A                      A                      A
 Frequencies --   3122.2602              3132.5314              3142.9378
 Red. masses --      1.1022                 1.0936                 1.1051
 Frc consts  --      6.3307                 6.3229                 6.4318
 IR Inten    --     22.4164                33.0795                17.4670

 - Thermochemistry -
 -------------------
 Temperature   298.150 Kelvin.  Pressure   1.00000 Atm.
 Atom     1 has atomic number  6 and mass  12.00000

 Molecular mass:   126.06808 amu.
 Principal axes and moments of inertia in atomic units:
                           1         2         3
     Eigenvalues --   686.690781145.329011535.96742
           X            0.99894   0.04590   0.00163
           Y           -0.04584   0.99857  -0.02752
           Z           -0.00290   0.02742   0.99962
 This molecule is an asymmetric top.
 Rotational symmetry number  1.
 Warning -- assumption of classical behavior for rotation
           may cause significant error
 Rotational temperatures (Kelvin)      0.12613     0.07562     0.05639
 Rotational constants (GHZ):           2.62817     1.57574     1.17499
 Zero-point vibrational energy     417462.5 (Joules/Mol)
                                   99.77593 (Kcal/Mol)
 Warning -- explicit consideration of  10 degrees of freedom as
           vibrations may cause significant error
 Vibrational temperatures:    110.15   199.67   228.53   311.29   446.42
          (Kelvin)            467.11   564.79   671.39   808.92   862.38
                              913.81   948.98  1079.79  1130.14  1199.21
                             1220.55  1278.69  1326.01  1387.66  1407.78
                             1432.43  1455.62  1548.09  1557.05  1626.07
                             1635.88  1698.83  1730.22  1813.24  1826.42
                             1842.25  1885.96  1918.85  2015.68  2032.34
                             2086.70  2110.36  2139.60  2157.74  2172.07
                             2700.58  4368.98  4376.92  4406.76  4415.29
                             4416.21  4472.77  4490.90  4492.23  4507.01
                             4521.98

 Zero-point correction=                           0.159003 (Hartree/Particle)
 Thermal correction to Energy=                    0.167227
 Thermal correction to Enthalpy=                  0.168171
 Thermal correction to Gibbs Free Energy=         0.126115
 Sum of electronic and zero-point Energies=           -423.030971
 Sum of electronic and thermal Energies=              -423.022748
 Sum of electronic and thermal Enthalpies=            -423.021804
 Sum of electronic and thermal Free Energies=         -423.063859

                     E (Thermal)             CV                S
                      KCal/Mol        Cal/Mol-Kelvin    Cal/Mol-Kelvin
 Total                  104.936             31.702             88.513
 Electronic               0.000              0.000              0.000
 Translational            0.889              2.981             40.409
 Rotational               0.889              2.981             28.581
 Vibrational            103.159             25.741             19.523
 Vibration     1          0.599              1.965              3.977
 Vibration     2          0.614              1.915              2.821
 Vibration     3          0.621              1.893              2.564
 Vibration     4          0.645              1.816              1.989
 Vibration     5          0.699              1.654              1.361
 Vibration     6          0.709              1.626              1.287
 Vibration     7          0.760              1.486              0.990
 Vibration     8          0.824              1.324              0.747
 Vibration     9          0.918              1.113              0.519
 Vibration    10          0.957              1.033              0.451

 Optimization completed.
    -- Stationary point found.
 Normal termination of Gaussian 09 at Tue Jan 28 10:02:42 2020.
