 Gaussian 09, Revision D.01,
 Gaussian 09:  ES64L-G09RevD.01 24-Apr-2013

 -----------------------------
 # b3lyp 6-31G(2df,p) opt Freq
 -----------------------------

 -----
 titel
 -----
 Symbolic Z-matrix:
 Charge =  0 Multiplicity = 1

 SCF Done:  E(RB3LYP) =  -423.171687142     A.U. after   14 cycles
 Optimization completed.
    -- Stationary point found.
 Normal termination of Gaussian 09 at Mon Jan 27 23:07:30 2020.

 ----------------------------------------------------------------------
 #N Geom=AllCheck Guess=TCheck SCRF=Check GenChk RB3LYP/6-31G(2df,p) Fr
 eq
 ----------------------------------------------------------------------

 Structure from the checkpoint file:  "/scratch/puck/g09_506951e5-b135-4af4-8941-ef02c57ec2a9/Gau-81804.chk"
 -----
 titel
 -----
 Charge =  0 Multiplicity = 1

                         Standard orientation:
 ---------------------------------------------------------------------
 Center     Atomic      Atomic             Coordinates (Angstroms)
 Number     Number       Type             X           Y           Z
 ---------------------------------------------------------------------
      1          8           0        2.634381   -0.025103   -0.513794
      2          6           0        1.233492    0.036257   -0.593522
      3          6           0        0.486200   -1.037947    0.233420
      4          6           0       -0.863554   -1.519174   -0.322403
      5          6           0       -2.041883   -0.566077   -0.018714
      6          6           0       -1.841837    0.898791   -0.341022
      7          6           0       -0.730816    1.607208   -0.129161
      8          6           0        0.544197    1.020799    0.397505
      9          8           0        0.315896   -0.084526    1.320339
     10          1           0        2.872196   -0.127866    0.415258
     11          1           0        0.979044    0.138718   -1.649427
     12          1           0        1.118602   -1.880288    0.537181
     13          1           0       -0.764827   -1.666379   -1.404935
     14          1           0       -1.106622   -2.499772    0.101737
     15          1           0       -2.922908   -0.932255   -0.556370
     16          1           0       -2.281046   -0.652083    1.048084
     17          1           0       -2.709194    1.416723   -0.743912
     18          1           0       -0.705485    2.662129   -0.390556
     19          1           0        1.203231    1.778964    0.833962
 ---------------------------------------------------------------------

 SCF Done:  E(RB3LYP) =  -423.171687142     A.U. after    1 cycles

 The electronic state is 1-A.
 Alpha  occ. eigenvalues --  -19.14390 -19.13391 -10.23473 -10.23277 -10.23193
 Alpha  occ. eigenvalues --  -10.18775 -10.18725 -10.18573 -10.17998  -1.05111
 Alpha  occ. eigenvalues --   -1.01317  -0.80516  -0.76748  -0.72790  -0.65755
 Alpha  occ. eigenvalues --   -0.64407  -0.56639  -0.53149  -0.51930  -0.48526
 Alpha  occ. eigenvalues --   -0.45703  -0.45391  -0.43164  -0.42138  -0.41175
 Alpha  occ. eigenvalues --   -0.38004  -0.36551  -0.35872  -0.34618  -0.32574
 Alpha  occ. eigenvalues --   -0.30467  -0.27357  -0.25405  -0.23641
 Alpha virt. eigenvalues --    0.00602   0.07932   0.08699   0.10627   0.11281
 Alpha virt. eigenvalues --    0.12026   0.14008   0.15112   0.16102   0.16740
 Alpha virt. eigenvalues --    0.18661   0.19568   0.21058   0.22695   0.23465

 Mulliken charges:
               1
     1  O   -0.446457
     2  C    0.148399
     3  C    0.049881
     4  C   -0.236643
     5  C   -0.240165
     6  C   -0.071180
     7  C   -0.044663
     8  C   -0.014738
     9  O   -0.297648
    10  H    0.288608
    11  H    0.092902
    12  H    0.074733
    13  H    0.106735
    14  H    0.102209
    15  H    0.097131
    16  H    0.133383
    17  H    0.092570
    18  H    0.087897
    19  H    0.077045
 Sum of Mulliken charges =   0.00000

 Dipole moment (field-independent basis, Debye):
    X=             -0.8092    Y=             -0.2822    Z=             -0.3500  Tot=              0.9257
 Quadrupole moment (field-independent basis, Debye-Ang):
   XX=            -53.3588   YY=            -49.9678   ZZ=            -56.0749
   XY=              0.3946   XZ=              4.6415   YZ=             -0.2997

  Exact polarizability:  88.453   3.664  79.718   4.887  -0.737  58.947
 Approx polarizability: 125.956  10.071 114.693   7.047  -0.465  96.733

                      1                      2                      3
                      A                      A                      A
 Frequencies --    119.8523               210.3394               242.6865
 Red. masses --      3.0349                 2.3961                 2.9229
 Frc consts  --      0.0257                 0.0625                 0.1014
 IR Inten    --      0.9357                 6.4621                 5.2942

                      4                      5                      6
                      A                      A                      A
 Frequencies --    291.6341               331.5239               371.7741
 Red. masses --      2.8528                 4.6491                 3.3401
 Frc consts  --      0.1430                 0.3011                 0.2720
 IR Inten    --      1.7939                 2.3471                 2.6786

                      7                      8                      9
                      A                      A                      A
 Frequencies --    401.9637               439.8077               508.7189
 Red. masses --      1.2721                 3.8465                 3.1801
 Frc consts  --      0.1211                 0.4384                 0.4849
 IR Inten    --     76.5951                11.0018                 3.2585

                     10                     11                     12
                      A                      A                      A
 Frequencies --    636.9263               688.2004               746.9465
 Red. masses --      2.3313                 2.4542                 1.6261
 Frc consts  --      0.5572                 0.6848                 0.5345
 IR Inten    --      4.0657                 4.7490                20.4866

                     13                     14                     15
                      A                      A                      A
 Frequencies --    812.2911               856.5544               864.0542
 Red. masses --      2.8224                 3.1881                 4.3697
 Frc consts  --      1.0972                 1.3781                 1.9222
 IR Inten    --      5.8361                 5.8999                36.5008

                     16                     17                     18
                      A                      A                      A
 Frequencies --    906.7296               926.1088               953.8611
 Red. masses --      2.7528                 3.1524                 2.7807
 Frc consts  --      1.3334                 1.5930                 1.4907
 IR Inten    --     17.7222                 2.0148                24.2133

                     19                     20                     21
                      A                      A                      A
 Frequencies --    990.2060               994.5114              1005.9807
 Red. masses --      2.0692                 1.5240                 2.9347
 Frc consts  --      1.1954                 0.8881                 1.7498
 IR Inten    --      0.9491                 1.3763                21.8368

                     22                     23                     24
                      A                      A                      A
 Frequencies --   1041.3092              1077.5711              1096.5916
 Red. masses --      2.1172                 2.1923                 2.5298
 Frc consts  --      1.3526                 1.4998                 1.7924
 IR Inten    --     17.2129                11.3467                12.7769

                     25                     26                     27
                      A                      A                      A
 Frequencies --   1111.7319              1165.5925              1200.7933
 Red. masses --      3.2941                 1.1709                 1.2685
 Frc consts  --      2.3988                 0.9373                 1.0776
 IR Inten    --    109.2720                17.1404                27.2829

                     28                     29                     30
                      A                      A                      A
 Frequencies --   1226.0446              1231.7788              1258.6399
 Red. masses --      1.1482                 1.4546                 1.2860
 Frc consts  --      1.0169                 1.3003                 1.2004
 IR Inten    --      2.1658                 0.1505                 0.8299

                     31                     32                     33
                      A                      A                      A
 Frequencies --   1289.4937              1306.1531              1343.5533
 Red. masses --      1.3516                 1.3305                 1.3862
 Frc consts  --      1.3242                 1.3374                 1.4743
 IR Inten    --      6.7778                 0.0696                 1.2828

                     34                     35                     36
                      A                      A                      A
 Frequencies --   1349.1776              1381.2436              1384.3379
 Red. masses --      1.4490                 1.4031                 1.3927
 Frc consts  --      1.5540                 1.5771                 1.5725
 IR Inten    --      1.3128                12.2403                 3.9553

                     37                     38                     39
                      A                      A                      A
 Frequencies --   1419.2020              1432.8495              1471.8347
 Red. masses --      1.5364                 1.2971                 1.0856
 Frc consts  --      1.8233                 1.5690                 1.3856
 IR Inten    --      3.5294                65.3642                 2.2019

                     40                     41                     42
                      A                      A                      A
 Frequencies --   1489.7636              1712.0274              3026.4393
 Red. masses --      1.0903                 6.6974                 1.0646
 Frc consts  --      1.4257                11.5659                 5.7450
 IR Inten    --      3.8820                 2.9231                10.7331

                     43                     44                     45
                      A                      A                      A
 Frequencies --   3034.2440              3040.7203              3052.7808
 Red. masses --      1.0634                 1.0827                 1.0875
 Frc consts  --      5.7681                 5.8983                 5.9712
 IR Inten    --     19.0187                58.1214                50.8232

                     46                     47                     48
                      A                      A                      A
 Frequencies --   3066.4769              3075.1913              3108.2205
 Red. masses --      1.0967                 1.1033                 1.0884
 Frc consts  --      6.0758                 6.1476                 6.1954
 IR Inten    --     33.6840                23.9495                24.9440

                     49                     50                     51
                      A                      A                      A
 Frequencies --   3144.1587              3168.0219              3793.6279
 Red. masses --      1.0838                 1.0960                 1.0656
 Frc consts  --      6.3125                 6.4811                 9.0354
 IR Inten    --      7.2736                30.6054                23.7679

 - Thermochemistry -
 -------------------
 Temperature   298.150 Kelvin.  Pressure   1.00000 Atm.
 Atom     1 has atomic number  8 and mass  15.99491

 Molecular mass:   126.06808 amu.
 Principal axes and moments of inertia in atomic units:
                           1         2         3
     Eigenvalues --   620.581671173.302921439.04100
           X            0.99975   0.01537   0.01615
           Y           -0.01539   0.99988   0.00111
           Z           -0.01613  -0.00136   0.99987
 This molecule is an asymmetric top.
 Rotational symmetry number  1.
 Warning -- assumption of classical behavior for rotation
           may cause significant error
 Rotational temperatures (Kelvin)      0.13957     0.07382     0.06019
 Rotational constants (GHZ):           2.90814     1.53817     1.25413
 Zero-point vibrational energy     423479.5 (Joules/Mol)
                                  101.21403 (Kcal/Mol)
 Warning -- explicit consideration of   9 degrees of freedom as
           vibrations may cause significant error
 Vibrational temperatures:    172.44   302.63   349.17   419.60   476.99
          (Kelvin)            534.90   578.34   632.78   731.93   916.39
                              990.17  1074.69  1168.70  1232.39  1243.18
                             1304.58  1332.46  1372.39  1424.68  1430.88
                             1447.38  1498.21  1550.38  1577.75  1599.53
                             1677.03  1727.67  1764.00  1772.25  1810.90
                             1855.29  1879.26  1933.07  1941.16  1987.30
                             1991.75  2041.91  2061.55  2117.64  2143.43
                             2463.22  4354.37  4365.59  4374.91  4392.27
                             4411.97  4424.51  4472.03  4523.74  4558.07
                             5458.18

 Zero-point correction=                           0.161295 (Hartree/Particle)
 Thermal correction to Energy=                    0.168896
 Thermal correction to Enthalpy=                  0.169840
 Thermal correction to Gibbs Free Energy=         0.129549
 Sum of electronic and zero-point Energies=           -423.010392
 Sum of electronic and thermal Energies=              -423.002791
 Sum of electronic and thermal Enthalpies=            -423.001847
 Sum of electronic and thermal Free Energies=         -423.042138

                     E (Thermal)             CV                S
                      KCal/Mol        Cal/Mol-Kelvin    Cal/Mol-Kelvin
 Total                  105.984             30.557             84.799
 Electronic               0.000              0.000              0.000
 Translational            0.889              2.981             40.409
 Rotational               0.889              2.981             28.440
 Vibrational            104.206             24.595             15.951
 Vibration     1          0.609              1.933              3.103
 Vibration     2          0.643              1.825              2.041
 Vibration     3          0.659              1.775              1.783
 Vibration     4          0.687              1.689              1.464
 Vibration     5          0.714              1.613              1.253
 Vibration     6          0.743              1.530              1.072
 Vibration     7          0.768              1.466              0.955
 Vibration     8          0.800              1.383              0.827
 Vibration     9          0.864              1.231              0.637

 Optimization completed.
    -- Stationary point found.
 Normal termination of Gaussian 09 at Mon Jan 27 23:56:06 2020.
