 Gaussian 09, Revision D.01,
 Gaussian 09:  ES64L-G09RevD.01 24-Apr-2013

 -----------------------------
 # b3lyp 6-31G(2df,p) opt Freq
 -----------------------------

 -----
 titel
 -----
 Symbolic Z-matrix:
 Charge =  0 Multiplicity = 1

 SCF Done:  E(RB3LYP) =  -423.077367139     A.U. after   14 cycles
 Optimization completed.
    -- Stationary point found.
 Normal termination of Gaussian 09 at Tue Jan 28 01:53:25 2020.

 ----------------------------------------------------------------------
 #N Geom=AllCheck Guess=TCheck SCRF=Check GenChk RB3LYP/6-31G(2df,p) Fr
 eq
 ----------------------------------------------------------------------

 Structure from the checkpoint file:  "/scratch/puck/g09_bf3e3625-d644-400a-a777-4c6c5cdef48a/Gau-37913.chk"
 -----
 titel
 -----
 Charge =  0 Multiplicity = 1

                         Standard orientation:
 ---------------------------------------------------------------------
 Center     Atomic      Atomic             Coordinates (Angstroms)
 Number     Number       Type             X           Y           Z
 ---------------------------------------------------------------------
      1          6           0        1.195447    1.999837   -0.213443
      2          6           0        1.581957    0.552134    0.039493
      3          6           0        1.041427   -0.646208   -0.802568
      4          8           0        1.425650   -1.543825    0.317403
      5          6           0        0.742390   -0.390547    0.950663
      6          6           0       -0.336150   -0.491015   -0.146523
      7          6           0       -1.596320   -1.303481   -0.194328
      8          6           0       -1.618391    0.192933   -0.459229
      9          8           0       -2.222277    1.118057    0.402655
     10          1           0        1.620865    2.355250   -1.158300
     11          1           0        0.114255    2.149101   -0.242375
     12          1           0        1.597891    2.637434    0.581264
     13          1           0        2.650884    0.429402    0.233157
     14          1           0        1.298091   -0.962483   -1.814515
     15          1           0        0.637783   -0.404520    2.037278
     16          1           0       -1.774525   -1.982638   -1.022550
     17          1           0       -1.994606   -1.651641    0.755492
     18          1           0       -1.787860    0.506599   -1.485107
     19          1           0       -2.051920    0.847722    1.310801
 ---------------------------------------------------------------------

 SCF Done:  E(RB3LYP) =  -423.077367139     A.U. after    1 cycles

 The electronic state is 1-A.
 Alpha  occ. eigenvalues --  -19.15108 -19.13063 -10.25029 -10.24739 -10.24170
 Alpha  occ. eigenvalues --  -10.20264 -10.19851 -10.18603 -10.17639  -1.05487
 Alpha  occ. eigenvalues --   -1.03325  -0.84979  -0.78608  -0.70034  -0.65493
 Alpha  occ. eigenvalues --   -0.62118  -0.60958  -0.54460  -0.52358  -0.48705
 Alpha  occ. eigenvalues --   -0.45808  -0.43758  -0.42267  -0.40819  -0.39095
 Alpha  occ. eigenvalues --   -0.38561  -0.38384  -0.36153  -0.33459  -0.32284
 Alpha  occ. eigenvalues --   -0.31017  -0.28085  -0.26063  -0.22783
 Alpha virt. eigenvalues --    0.05929   0.08299   0.08633   0.11579   0.11931
 Alpha virt. eigenvalues --    0.12833   0.13555   0.14752   0.14921   0.16806
 Alpha virt. eigenvalues --    0.17198   0.18380   0.18731   0.20018   0.21845

 Mulliken charges:
               1
     1  C   -0.454810
     2  C    0.049960
     3  C   -0.076947
     4  O   -0.305949
     5  C   -0.073631
     6  C    0.400001
     7  C   -0.423341
     8  C    0.024181
     9  O   -0.423774
    10  H    0.119837
    11  H    0.147947
    12  H    0.119262
    13  H    0.082696
    14  H    0.092666
    15  H    0.089060
    16  H    0.120434
    17  H    0.114111
    18  H    0.112614
    19  H    0.285683
 Sum of Mulliken charges =   0.00000

 Dipole moment (field-independent basis, Debye):
    X=             -0.1735    Y=              0.7039    Z=              0.1469  Tot=              0.7396
 Quadrupole moment (field-independent basis, Debye-Ang):
   XX=            -57.6383   YY=            -58.6345   ZZ=            -46.5938
   XY=              6.1878   XZ=             -2.3507   YZ=              1.6717

  Exact polarizability:  80.641   4.414  76.451  -0.227   0.997  70.601
 Approx polarizability: 111.056  -1.457 111.802  -0.320   0.508 111.231

                      1                      2                      3
                      A                      A                      A
 Frequencies --    125.4626               131.0406               170.7152
 Red. masses --      3.6637                 3.8654                 1.1203
 Frc consts  --      0.0340                 0.0391                 0.0192
 IR Inten    --      3.9643                 0.4901                35.1382

                      4                      5                      6
                      A                      A                      A
 Frequencies --    204.6887               240.2538               300.1712
 Red. masses --      1.1369                 2.4180                 2.6736
 Frc consts  --      0.0281                 0.0822                 0.1419
 IR Inten    --     67.6876                 8.6572                 1.0170

                      7                      8                      9
                      A                      A                      A
 Frequencies --    311.8961               397.8966               441.9939
 Red. masses --      3.3406                 4.2663                 2.3312
 Frc consts  --      0.1915                 0.3980                 0.2683
 IR Inten    --      2.0370                 0.3277                 4.5874

                     10                     11                     12
                      A                      A                      A
 Frequencies --    549.3983               619.6306               670.5525
 Red. masses --      4.1027                 4.2855                 3.5768
 Frc consts  --      0.7296                 0.9694                 0.9476
 IR Inten    --      9.6001                 0.3447                10.6716

                     13                     14                     15
                      A                      A                      A
 Frequencies --    723.9521               799.0620               811.1189
 Red. masses --      4.3794                 2.0898                 1.9577
 Frc consts  --      1.3523                 0.7862                 0.7589
 IR Inten    --      7.9533                 4.5439                 7.8795

                     16                     17                     18
                      A                      A                      A
 Frequencies --    821.8671               871.7582               878.2407
 Red. masses --      2.5452                 2.6625                 2.8138
 Frc consts  --      1.0129                 1.1921                 1.2787
 IR Inten    --     18.6845                26.2719                15.9046

                     19                     20                     21
                      A                      A                      A
 Frequencies --    955.3859              1000.7256              1016.1256
 Red. masses --      2.1492                 1.9804                 1.5087
 Frc consts  --      1.1558                 1.1685                 0.9178
 IR Inten    --     14.8920                10.3992                13.4875

                     22                     23                     24
                      A                      A                      A
 Frequencies --   1033.5178              1066.0722              1083.4695
 Red. masses --      1.3028                 1.6799                 1.6573
 Frc consts  --      0.8199                 1.1249                 1.1463
 IR Inten    --      2.2877                12.7445                12.3333

                     25                     26                     27
                      A                      A                      A
 Frequencies --   1090.3180              1112.6944              1144.2764
 Red. masses --      4.1316                 1.4083                 1.3844
 Frc consts  --      2.8939                 1.0273                 1.0680
 IR Inten    --     33.7783                 7.0618                 5.2611

                     28                     29                     30
                      A                      A                      A
 Frequencies --   1148.5616              1156.2049              1169.1827
 Red. masses --      2.4857                 1.8672                 2.3756
 Frc consts  --      1.9320                 1.4707                 1.9134
 IR Inten    --      8.2018                39.2457                28.9151

                     31                     32                     33
                      A                      A                      A
 Frequencies --   1231.7853              1245.1071              1256.9868
 Red. masses --      1.5602                 1.4713                 1.6116
 Frc consts  --      1.3947                 1.3439                 1.5003
 IR Inten    --      6.4170                 1.8758                 3.5688

                     34                     35                     36
                      A                      A                      A
 Frequencies --   1306.2928              1368.1978              1393.9722
 Red. masses --      1.6081                 1.5979                 1.4895
 Frc consts  --      1.6167                 1.7624                 1.7053
 IR Inten    --      1.5131                 4.5404                16.7471

                     37                     38                     39
                      A                      A                      A
 Frequencies --   1419.0462              1439.0231              1497.8456
 Red. masses --      1.2791                 1.2144                 1.1144
 Frc consts  --      1.5175                 1.4817                 1.4731
 IR Inten    --     12.9643                22.5377                 8.4696

                     40                     41                     42
                      A                      A                      A
 Frequencies --   1504.4566              1507.2570              3036.9507
 Red. masses --      1.4025                 1.4576                 1.0387
 Frc consts  --      1.8703                 1.9510                 5.6441
 IR Inten    --      6.1205                25.2939                27.7605

                     43                     44                     45
                      A                      A                      A
 Frequencies --   3080.1161              3092.6466              3099.2986
 Red. masses --      1.0846                 1.1000                 1.0913
 Frc consts  --      6.0628                 6.1986                 6.1763
 IR Inten    --     24.4760                15.8487                70.5908

                     46                     47                     48
                      A                      A                      A
 Frequencies --   3113.2123              3113.7499              3135.3987
 Red. masses --      1.0936                 1.0554                 1.0986
 Frc consts  --      6.2448                 6.0289                 6.3629
 IR Inten    --     28.2224                 8.8190                11.5657

                     49                     50                     51
                      A                      A                      A
 Frequencies --   3156.2679              3198.5015              3819.4157
 Red. masses --      1.0892                 1.1149                 1.0660
 Frc consts  --      6.3932                 6.7204                 9.1619
 IR Inten    --     10.9489                 8.8014                16.7813

 - Thermochemistry -
 -------------------
 Temperature   298.150 Kelvin.  Pressure   1.00000 Atm.
 Atom     1 has atomic number  6 and mass  12.00000

 Molecular mass:   126.06808 amu.
 Principal axes and moments of inertia in atomic units:
                           1         2         3
     Eigenvalues --   737.645671119.790171561.28215
           X            0.99363   0.11257  -0.00481
           Y           -0.11256   0.99364   0.00287
           Z            0.00510  -0.00231   0.99998
 This molecule is an asymmetric top.
 Rotational symmetry number  1.
 Warning -- assumption of classical behavior for rotation
           may cause significant error
 Rotational temperatures (Kelvin)      0.11742     0.07735     0.05548
 Rotational constants (GHZ):           2.44662     1.61168     1.15594
 Zero-point vibrational energy     413081.1 (Joules/Mol)
                                   98.72874 (Kcal/Mol)
 Warning -- explicit consideration of  11 degrees of freedom as
           vibrations may cause significant error
 Vibrational temperatures:    180.51   188.54   245.62   294.50   345.67
          (Kelvin)            431.88   448.75   572.48   635.93   790.46
                              891.51   964.77  1041.60  1149.67  1167.02
                             1182.48  1254.26  1263.59  1374.59  1439.82
                             1461.98  1487.00  1533.84  1558.87  1568.72
                             1600.92  1646.36  1652.52  1663.52  1682.19
                             1772.26  1791.43  1808.52  1879.46  1968.53
                             2005.61  2041.69  2070.43  2155.06  2164.57
                             2168.60  4369.49  4431.59  4449.62  4459.19
                             4479.21  4479.99  4511.13  4541.16  4601.92
                             5495.28

 Zero-point correction=                           0.157334 (Hartree/Particle)
 Thermal correction to Energy=                    0.165942
 Thermal correction to Enthalpy=                  0.166887
 Thermal correction to Gibbs Free Energy=         0.124391
 Sum of electronic and zero-point Energies=           -422.920033
 Sum of electronic and thermal Energies=              -422.911425
 Sum of electronic and thermal Enthalpies=            -422.910481
 Sum of electronic and thermal Free Energies=         -422.952976

                     E (Thermal)             CV                S
                      KCal/Mol        Cal/Mol-Kelvin    Cal/Mol-Kelvin
 Total                  104.130             33.187             89.440
 Electronic               0.000              0.000              0.000
 Translational            0.889              2.981             40.409
 Rotational               0.889              2.981             28.646
 Vibrational            102.353             27.225             20.385
 Vibration     1          0.610              1.928              3.014
 Vibration     2          0.612              1.922              2.931
 Vibration     3          0.626              1.879              2.428
 Vibration     4          0.640              1.833              2.091
 Vibration     5          0.657              1.779              1.801
 Vibration     6          0.693              1.673              1.416
 Vibration     7          0.700              1.651              1.352
 Vibration     8          0.764              1.475              0.970
 Vibration     9          0.802              1.379              0.820
 Vibration    10          0.905              1.141              0.545
 Vibration    11          0.980              0.990              0.417

 Optimization completed.
    -- Stationary point found.
 Normal termination of Gaussian 09 at Tue Jan 28 02:44:02 2020.
