 Gaussian 09, Revision D.01,
 Gaussian 09:  ES64L-G09RevD.01 24-Apr-2013

 -----------------------------
 # b3lyp 6-31G(2df,p) opt Freq
 -----------------------------

 -----
 titel
 -----
 Symbolic Z-matrix:
 Charge =  0 Multiplicity = 1

 SCF Done:  E(RB3LYP) =  -423.224525289     A.U. after   14 cycles
 SCF Done:  E(RB3LYP) =  -423.224525267     A.U. after    6 cycles
 SCF Done:  E(RB3LYP) =  -423.224525179     A.U. after    7 cycles
 SCF Done:  E(RB3LYP) =  -423.224525202     A.U. after    7 cycles
 Optimization completed.
    -- Stationary point found.
 Normal termination of Gaussian 09 at Mon Jan 27 18:47:57 2020.

 ----------------------------------------------------------------------
 #N Geom=AllCheck Guess=TCheck SCRF=Check GenChk RB3LYP/6-31G(2df,p) Fr
 eq
 ----------------------------------------------------------------------

 Structure from the checkpoint file:  "/scratch/puck/g09_97a89f27-131d-4f72-b8c9-5040cb9d062d/Gau-171354.chk"
 -----
 titel
 -----
 Charge =  0 Multiplicity = 1

                         Standard orientation:
 ---------------------------------------------------------------------
 Center     Atomic      Atomic             Coordinates (Angstroms)
 Number     Number       Type             X           Y           Z
 ---------------------------------------------------------------------
      1          6           0        1.867972   -1.263905    0.199793
      2          6           0        0.555303   -0.532372    0.127460
      3          6           0       -0.484003   -0.643676    1.250400
      4          6           0       -1.552132    0.172774    0.483163
      5          6           0       -1.572071   -0.615516   -0.832812
      6          8           0       -0.190811   -0.959826   -1.046420
      7          6           0       -0.804706    1.496400    0.212703
      8          6           0        0.627608    1.000181   -0.065600
      9          8           0        1.581785    1.652838   -0.392936
     10          1           0        2.483638   -1.014115   -0.668009
     11          1           0        2.418038   -0.969859    1.098161
     12          1           0        1.705334   -2.344739    0.220623
     13          1           0       -0.777337   -1.678369    1.446661
     14          1           0       -0.161724   -0.170545    2.182762
     15          1           0       -2.525436    0.278865    0.962366
     16          1           0       -2.173261   -1.531421   -0.762917
     17          1           0       -1.935746   -0.024727   -1.681629
     18          1           0       -1.195945    2.078314   -0.626592
     19          1           0       -0.793184    2.149188    1.092779
 ---------------------------------------------------------------------

 SCF Done:  E(RB3LYP) =  -423.224525202     A.U. after    1 cycles

 The electronic state is 1-A.
 Alpha  occ. eigenvalues --  -19.14662 -19.13203 -10.26369 -10.24104 -10.23427
 Alpha  occ. eigenvalues --  -10.20614 -10.19543 -10.19531 -10.17745  -1.05109
 Alpha  occ. eigenvalues --   -1.03229  -0.83750  -0.77771  -0.71309  -0.68622
 Alpha  occ. eigenvalues --   -0.61293  -0.58929  -0.51935  -0.50505  -0.48450
 Alpha  occ. eigenvalues --   -0.47431  -0.44122  -0.43166  -0.40889  -0.39667
 Alpha  occ. eigenvalues --   -0.38452  -0.38256  -0.36858  -0.36515  -0.35602
 Alpha  occ. eigenvalues --   -0.34362  -0.31345  -0.27704  -0.22582
 Alpha virt. eigenvalues --   -0.01608   0.07935   0.10454   0.11882   0.12466
 Alpha virt. eigenvalues --    0.14392   0.14872   0.15650   0.16149   0.16346
 Alpha virt. eigenvalues --    0.16870   0.18777   0.19509   0.20316   0.21609

 Mulliken charges:
               1
     1  C   -0.482707
     2  C    0.313415
     3  C   -0.282417
     4  C   -0.060421
     5  C   -0.071255
     6  O   -0.312212
     7  C   -0.338000
     8  C    0.419608
     9  O   -0.332543
    10  H    0.144361
    11  H    0.123649
    12  H    0.121258
    13  H    0.109892
    14  H    0.107135
    15  H    0.077307
    16  H    0.100365
    17  H    0.105192
    18  H    0.128917
    19  H    0.128456
 Sum of Mulliken charges =   0.00000

 Dipole moment (field-independent basis, Debye):
    X=             -2.6778    Y=             -0.9069    Z=              1.9271  Tot=              3.4215
 Quadrupole moment (field-independent basis, Debye-Ang):
   XX=            -53.3362   YY=            -55.5938   ZZ=            -53.0144
   XY=             -4.3827   XZ=              1.9497   YZ=             -0.2336

  Exact polarizability:  82.585   0.292  75.671   0.987  -1.024  65.701
 Approx polarizability: 118.151   6.909 110.503  -0.877  -0.174 102.177

                      1                      2                      3
                      A                      A                      A
 Frequencies --    118.5470               178.9016               221.1644
 Red. masses --      3.6499                 1.0578                 3.3677
 Frc consts  --      0.0302                 0.0199                 0.0971
 IR Inten    --      2.9577                 0.1455                 9.3830

                      4                      5                      6
                      A                      A                      A
 Frequencies --    269.3822               312.1359               376.8518
 Red. masses --      3.9161                 2.6200                 1.8722
 Frc consts  --      0.1674                 0.1504                 0.1567
 IR Inten    --      2.0950                 0.6341                 0.8240

                      7                      8                      9
                      A                      A                      A
 Frequencies --    425.7038               499.9298               544.7791
 Red. masses --      2.2425                 3.1773                 4.3166
 Frc consts  --      0.2394                 0.4679                 0.7548
 IR Inten    --      0.4438                 7.6509                 2.0286

                     10                     11                     12
                      A                      A                      A
 Frequencies --    595.3794               625.7449               702.4547
 Red. masses --      2.5640                 4.1103                 4.0181
 Frc consts  --      0.5355                 0.9482                 1.1682
 IR Inten    --      2.9691                 1.3187                 0.4295

                     13                     14                     15
                      A                      A                      A
 Frequencies --    791.4644               828.8523               867.5675
 Red. masses --      4.2651                 3.2315                 2.5942
 Frc consts  --      1.5741                 1.3080                 1.1504
 IR Inten    --      2.4639                13.2908                 7.1453

                     16                     17                     18
                      A                      A                      A
 Frequencies --    884.1161               924.5671               941.1006
 Red. masses --      2.1430                 1.6507                 2.5218
 Frc consts  --      0.9869                 0.8314                 1.3159
 IR Inten    --      3.9032                 4.1032                 0.8892

                     19                     20                     21
                      A                      A                      A
 Frequencies --    957.9446               974.7860              1015.0208
 Red. masses --      2.1181                 1.8883                 2.2049
 Frc consts  --      1.1452                 1.0572                 1.3384
 IR Inten    --      7.1467                38.1057                 9.8018

                     22                     23                     24
                      A                      A                      A
 Frequencies --   1045.7111              1061.1173              1113.0420
 Red. masses --      2.1379                 1.7293                 1.5896
 Frc consts  --      1.3774                 1.1472                 1.1603
 IR Inten    --     44.3205                19.5633                22.5795

                     25                     26                     27
                      A                      A                      A
 Frequencies --   1133.6513              1149.1671              1183.1502
 Red. masses --      1.7159                 1.4264                 1.3491
 Frc consts  --      1.2993                 1.1098                 1.1127
 IR Inten    --     17.1841                 3.2607                 4.3661

                     28                     29                     30
                      A                      A                      A
 Frequencies --   1222.6119              1229.9455              1269.6004
 Red. masses --      1.7010                 1.8609                 1.7490
 Frc consts  --      1.4980                 1.6586                 1.6610
 IR Inten    --      5.6417                 8.7644                 0.6691

                     31                     32                     33
                      A                      A                      A
 Frequencies --   1290.5240              1326.1955              1352.8835
 Red. masses --      1.7395                 1.8074                 2.3238
 Frc consts  --      1.7069                 1.8729                 2.5059
 IR Inten    --      1.5561                 5.9495                 1.9628

                     34                     35                     36
                      A                      A                      A
 Frequencies --   1370.2591              1417.0563              1448.8383
 Red. masses --      1.3554                 1.4735                 1.0909
 Frc consts  --      1.4994                 1.7433                 1.3492
 IR Inten    --      0.2713                 9.0204                 8.9658

                     37                     38                     39
                      A                      A                      A
 Frequencies --   1479.9013              1486.9041              1490.1794
 Red. masses --      1.0506                 1.0812                 1.0858
 Frc consts  --      1.3556                 1.4084                 1.4206
 IR Inten    --      2.8275                 6.4590                 2.6083

                     40                     41                     42
                      A                      A                      A
 Frequencies --   1530.9190              1859.9091              3013.2190
 Red. masses --      1.0954                12.7893                 1.0594
 Frc consts  --      1.5126                26.0664                 5.6671
 IR Inten    --      0.4253               209.3362                72.8687

                     43                     44                     45
                      A                      A                      A
 Frequencies --   3049.2819              3050.1239              3057.0389
 Red. masses --      1.0376                 1.0596                 1.1015
 Frc consts  --      5.6841                 5.8079                 6.0648
 IR Inten    --      9.2690                13.3761                21.1842

                     46                     47                     48
                      A                      A                      A
 Frequencies --   3058.7319              3101.4073              3112.7338
 Red. masses --      1.0624                 1.1016                 1.1077
 Frc consts  --      5.8564                 6.2428                 6.3237
 IR Inten    --     30.5342                10.5982                13.2730

                     49                     50                     51
                      A                      A                      A
 Frequencies --   3115.7048              3123.6947              3129.4576
 Red. masses --      1.0889                 1.1014                 1.1020
 Frc consts  --      6.2281                 6.3322                 6.3587
 IR Inten    --     30.0798                17.4580                10.3927

 - Thermochemistry -
 -------------------
 Temperature   298.150 Kelvin.  Pressure   1.00000 Atm.
 Atom     1 has atomic number  6 and mass  12.00000

 Molecular mass:   126.06808 amu.
 Principal axes and moments of inertia in atomic units:
                           1         2         3
     Eigenvalues --   768.86094 929.016101229.42297
           X            0.97931  -0.20153   0.01818
           Y            0.20183   0.97928  -0.01644
           Z           -0.01449   0.01977   0.99970
 This molecule is an asymmetric top.
 Rotational symmetry number  1.
 Warning -- assumption of classical behavior for rotation
           may cause significant error
 Rotational temperatures (Kelvin)      0.11265     0.09323     0.07045
 Rotational constants (GHZ):           2.34729     1.94264     1.46796
 Zero-point vibrational energy     420663.0 (Joules/Mol)
                                  100.54086 (Kcal/Mol)
 Warning -- explicit consideration of  10 degrees of freedom as
           vibrations may cause significant error
 Vibrational temperatures:    170.56   257.40   318.21   387.58   449.09
          (Kelvin)            542.21   612.49   719.29   783.81   856.62
                              900.31  1010.67  1138.74  1192.53  1248.23
                             1272.04  1330.24  1354.03  1378.27  1402.50
                             1460.39  1504.54  1526.71  1601.42  1631.07
                             1653.39  1702.29  1759.06  1769.62  1826.67
                             1856.77  1908.10  1946.50  1971.49  2038.83
                             2084.55  2129.25  2139.32  2144.03  2202.65
                             2675.99  4335.34  4387.23  4388.44  4398.39
                             4400.83  4462.23  4478.52  4482.80  4494.29
                             4502.59

 Zero-point correction=                           0.160222 (Hartree/Particle)
 Thermal correction to Energy=                    0.167941
 Thermal correction to Enthalpy=                  0.168886
 Thermal correction to Gibbs Free Energy=         0.128385
 Sum of electronic and zero-point Energies=           -423.064303
 Sum of electronic and thermal Energies=              -423.056584
 Sum of electronic and thermal Enthalpies=            -423.055640
 Sum of electronic and thermal Free Energies=         -423.096140

                     E (Thermal)             CV                S
                      KCal/Mol        Cal/Mol-Kelvin    Cal/Mol-Kelvin
 Total                  105.385             30.782             85.240
 Electronic               0.000              0.000              0.000
 Translational            0.889              2.981             40.409
 Rotational               0.889              2.981             28.265
 Vibrational            103.607             24.820             16.567
 Vibration     1          0.609              1.934              3.124
 Vibration     2          0.629              1.868              2.340
 Vibration     3          0.648              1.809              1.950
 Vibration     4          0.674              1.730              1.600
 Vibration     5          0.700              1.651              1.351
 Vibration     6          0.747              1.519              1.052
 Vibration     7          0.788              1.414              0.873
 Vibration     8          0.855              1.250              0.658
 Vibration     9          0.900              1.151              0.555
 Vibration    10          0.953              1.042              0.458

 Normal termination of Gaussian 09 at Mon Jan 27 19:33:16 2020.
