 Gaussian 09, Revision D.01,
 Gaussian 09:  ES64L-G09RevD.01 24-Apr-2013

 -----------------------------
 # b3lyp 6-31G(2df,p) opt Freq
 -----------------------------

 -----
 titel
 -----
 Symbolic Z-matrix:
 Charge =  0 Multiplicity = 1

 SCF Done:  E(RB3LYP) =  -423.160576172     A.U. after   13 cycles
 Optimization completed.
    -- Stationary point found.
 Normal termination of Gaussian 09 at Mon Jan 27 11:24:34 2020.

 ----------------------------------------------------------------------
 #N Geom=AllCheck Guess=TCheck SCRF=Check GenChk RB3LYP/6-31G(2df,p) Fr
 eq
 ----------------------------------------------------------------------

 Structure from the checkpoint file:  "/scratch/puck/g09_e77fcb97-5195-4936-85aa-bc89b22184a1/Gau-22661.chk"
 -----
 titel
 -----
 Charge =  0 Multiplicity = 1

                         Standard orientation:
 ---------------------------------------------------------------------
 Center     Atomic      Atomic             Coordinates (Angstroms)
 Number     Number       Type             X           Y           Z
 ---------------------------------------------------------------------
      1          6           0       -1.093259   -1.297275   -0.647826
      2          6           0       -1.713994    0.000013   -0.069268
      3          6           0       -1.093237    1.297287   -0.647827
      4          6           0        0.001984    1.275858    0.472268
      5          8           0        1.367633    1.173415    0.115372
      6          6           0        1.677794   -0.000009   -0.589396
      7          8           0        1.367619   -1.173428    0.115369
      8          6           0        0.001966   -1.275861    0.472265
      9          6           0       -0.634266    0.000000    1.080797
     10          1           0       -1.740569   -2.173467   -0.562901
     11          1           0       -0.737945   -1.239099   -1.680593
     12          1           0       -2.786901    0.000020    0.118058
     13          1           0       -0.737920    1.239104   -1.680594
     14          1           0       -1.740530    2.173491   -0.562906
     15          1           0       -0.054002    2.147841    1.125981
     16          1           0        1.174514   -0.000002   -1.571181
     17          1           0        2.759874   -0.000014   -0.733614
     18          1           0       -0.054026   -2.147848    1.125972
     19          1           0       -0.846436    0.000003    2.149775
 ---------------------------------------------------------------------

 SCF Done:  E(RB3LYP) =  -423.160576172     A.U. after    1 cycles

 The electronic state is 1-A.
 Alpha  occ. eigenvalues --  -19.14313 -19.14313 -10.26910 -10.23411 -10.23410
 Alpha  occ. eigenvalues --  -10.19105 -10.18230 -10.18230 -10.18190  -1.07042
 Alpha  occ. eigenvalues --   -1.00466  -0.86910  -0.74305  -0.71563  -0.66087
 Alpha  occ. eigenvalues --   -0.61157  -0.59320  -0.53200  -0.50945  -0.50077
 Alpha  occ. eigenvalues --   -0.48308  -0.44917  -0.43746  -0.42547  -0.40670
 Alpha  occ. eigenvalues --   -0.38305  -0.36925  -0.34753  -0.34548  -0.31387
 Alpha  occ. eigenvalues --   -0.29132  -0.28674  -0.25021  -0.24824
 Alpha virt. eigenvalues --    0.06340   0.08746   0.10847   0.11595   0.12314
 Alpha virt. eigenvalues --    0.13304   0.15214   0.15217   0.16206   0.17895
 Alpha virt. eigenvalues --    0.18628   0.19685   0.21073   0.21862   0.22556

 Mulliken charges:
               1
     1  C   -0.281238
     2  C   -0.020856
     3  C   -0.281238
     4  C    0.121202
     5  O   -0.247698
     6  C    0.003268
     7  O   -0.247697
     8  C    0.121201
     9  C   -0.089260
    10  H    0.105498
    11  H    0.103105
    12  H    0.068381
    13  H    0.103106
    14  H    0.105497
    15  H    0.088626
    16  H    0.079137
    17  H    0.117727
    18  H    0.088626
    19  H    0.062613
 Sum of Mulliken charges =   0.00000

 Dipole moment (field-independent basis, Debye):
    X=             -1.8513    Y=              0.0000    Z=             -0.3593  Tot=              1.8858
 Quadrupole moment (field-independent basis, Debye-Ang):
   XX=            -54.1004   YY=            -54.1609   ZZ=            -51.5914
   XY=              0.0000   XZ=             -2.4156   YZ=              0.0000

  Exact polarizability:  76.805   0.000  73.687  -1.560   0.000  67.159
 Approx polarizability: 109.482   0.000 105.414  -1.219   0.000 102.376

                      1                      2                      3
                      A                      A                      A
 Frequencies --    173.5807               262.9977               359.5222
 Red. masses --      3.2450                 2.4377                 3.7355
 Frc consts  --      0.0576                 0.0993                 0.2845
 IR Inten    --      0.6828                 1.2546                 3.7868

                      4                      5                      6
                      A                      A                      A
 Frequencies --    375.9229               446.0193               497.3992
 Red. masses --      1.8095                 2.6633                 4.2100
 Frc consts  --      0.1507                 0.3122                 0.6137
 IR Inten    --      1.5595                 9.3300                 1.4593

                      7                      8                      9
                      A                      A                      A
 Frequencies --    521.6707               597.1474               709.1039
 Red. masses --      5.6728                 3.8377                 4.2873
 Frc consts  --      0.9096                 0.8063                 1.2701
 IR Inten    --      0.9253                 0.2679                10.4722

                     10                     11                     12
                      A                      A                      A
 Frequencies --    732.8271               781.5084               788.5386
 Red. masses --      2.2556                 1.8602                 2.3814
 Frc consts  --      0.7137                 0.6694                 0.8724
 IR Inten    --      0.6325                 5.4420                 0.8386

                     13                     14                     15
                      A                      A                      A
 Frequencies --    869.0447               900.9321               935.0263
 Red. masses --      2.0414                 2.4555                 2.0103
 Frc consts  --      0.9084                 1.1743                 1.0355
 IR Inten    --      5.9049                 2.9663                 9.3307

                     16                     17                     18
                      A                      A                      A
 Frequencies --    935.6326               977.5966              1005.1116
 Red. masses --      4.7207                 2.1295                 2.8621
 Frc consts  --      2.4348                 1.1991                 1.7036
 IR Inten    --      1.4481                 0.6260                27.1065

                     19                     20                     21
                      A                      A                      A
 Frequencies --   1005.5682              1036.8057              1058.7506
 Red. masses --      3.6065                 2.3758                 1.5457
 Frc consts  --      2.1486                 1.5047                 1.0209
 IR Inten    --     35.6116                76.4725                 4.7832

                     22                     23                     24
                      A                      A                      A
 Frequencies --   1066.4024              1109.3398              1124.9273
 Red. masses --      2.5731                 2.5371                 1.5024
 Frc consts  --      1.7241                 1.8395                 1.1202
 IR Inten    --     21.0404                 0.0264                16.4363

                     25                     26                     27
                      A                      A                      A
 Frequencies --   1150.4043              1198.3518              1210.9658
 Red. masses --      1.9022                 1.8595                 1.6336
 Frc consts  --      1.4832                 1.5733                 1.4114
 IR Inten    --     10.2853                 7.3897                13.1951

                     28                     29                     30
                      A                      A                      A
 Frequencies --   1214.2935              1233.3527              1255.9653
 Red. masses --      1.6721                 2.2457                 1.4938
 Frc consts  --      1.4526                 2.0127                 1.3883
 IR Inten    --     52.3464               128.4551                 6.9690

                     31                     32                     33
                      A                      A                      A
 Frequencies --   1278.6799              1289.4053              1305.5296
 Red. masses --      1.5651                 1.5753                 1.4668
 Frc consts  --      1.5077                 1.5431                 1.4729
 IR Inten    --      4.5770                 7.6735                 3.7518

                     34                     35                     36
                      A                      A                      A
 Frequencies --   1311.1322              1317.2207              1386.0693
 Red. masses --      1.1159                 1.3955                 1.2313
 Frc consts  --      1.1302                 1.4266                 1.3937
 IR Inten    --      0.9701                 0.5834                 6.0744

                     37                     38                     39
                      A                      A                      A
 Frequencies --   1401.2430              1447.6422              1467.4487
 Red. masses --      1.3038                 1.2282                 1.0983
 Frc consts  --      1.5083                 1.5165                 1.3934
 IR Inten    --     24.3640                10.9665                 1.8971

                     40                     41                     42
                      A                      A                      A
 Frequencies --   1477.6308              1517.9225              2959.4447
 Red. masses --      1.1062                 1.0928                 1.0691
 Frc consts  --      1.4230                 1.4835                 5.5170
 IR Inten    --      7.5300                 2.4707                55.5832

                     43                     44                     45
                      A                      A                      A
 Frequencies --   3056.0008              3057.2975              3084.8353
 Red. masses --      1.0596                 1.0593                 1.0909
 Frc consts  --      5.8306                 5.8336                 6.1162
 IR Inten    --     19.6919                41.4335                 0.4188

                     46                     47                     48
                      A                      A                      A
 Frequencies --   3086.8743              3105.6272              3108.2493
 Red. masses --      1.0906                 1.0961                 1.0934
 Frc consts  --      6.1230                 6.2289                 6.2237
 IR Inten    --     29.5718                23.0938                18.0634

                     49                     50                     51
                      A                      A                      A
 Frequencies --   3108.4574              3112.3162              3123.9330
 Red. masses --      1.1040                 1.0939                 1.0949
 Frc consts  --      6.2849                 6.2430                 6.2954
 IR Inten    --     36.6444                50.1617                57.5762

 - Thermochemistry -
 -------------------
 Temperature   298.150 Kelvin.  Pressure   1.00000 Atm.
 Atom     1 has atomic number  6 and mass  12.00000

 Molecular mass:   126.06808 amu.
 Principal axes and moments of inertia in atomic units:
                           1         2         3
     Eigenvalues --   700.09200 848.745821187.26881
           X            0.99993   0.00000  -0.01174
           Y            0.00000   1.00000   0.00000
           Z            0.01174   0.00000   0.99993
 This molecule is an asymmetric top.
 Rotational symmetry number  1.
 Warning -- assumption of classical behavior for rotation
           may cause significant error
 Rotational temperatures (Kelvin)      0.12372     0.10205     0.07295
 Rotational constants (GHZ):           2.57786     2.12636     1.52008
 Zero-point vibrational energy     427890.3 (Joules/Mol)
                                  102.26823 (Kcal/Mol)
 Warning -- explicit consideration of   8 degrees of freedom as
           vibrations may cause significant error
 Vibrational temperatures:    249.74   378.39   517.27   540.87   641.72
          (Kelvin)            715.65   750.57   859.16  1020.24  1054.37
                             1124.41  1134.53  1250.36  1296.24  1345.29
                             1346.16  1406.54  1446.13  1446.79  1491.73
                             1523.30  1534.31  1596.09  1618.52  1655.17
                             1724.16  1742.31  1747.10  1774.52  1807.05
                             1839.73  1855.16  1878.36  1886.42  1895.18
                             1994.24  2016.07  2082.83  2111.33  2125.98
                             2183.95  4257.98  4396.90  4398.76  4438.38
                             4441.32  4468.30  4472.07  4472.37  4477.92
                             4494.64

 Zero-point correction=                           0.162975 (Hartree/Particle)
 Thermal correction to Energy=                    0.169450
 Thermal correction to Enthalpy=                  0.170394
 Thermal correction to Gibbs Free Energy=         0.132457
 Sum of electronic and zero-point Energies=           -422.997601
 Sum of electronic and thermal Energies=              -422.991127
 Sum of electronic and thermal Enthalpies=            -422.990182
 Sum of electronic and thermal Free Energies=         -423.028119

                     E (Thermal)             CV                S
                      KCal/Mol        Cal/Mol-Kelvin    Cal/Mol-Kelvin
 Total                  106.331             27.520             79.844
 Electronic               0.000              0.000              0.000
 Translational            0.889              2.981             40.409
 Rotational               0.889              2.981             28.047
 Vibrational            104.554             21.558             11.388
 Vibration     1          0.627              1.875              2.396
 Vibration     2          0.670              1.741              1.642
 Vibration     3          0.734              1.556              1.124
 Vibration     4          0.747              1.521              1.056
 Vibration     5          0.805              1.370              0.808
 Vibration     6          0.853              1.256              0.665
 Vibration     7          0.877              1.202              0.606
 Vibration     8          0.955              1.038              0.455

 Optimization completed.
    -- Stationary point found.
 Normal termination of Gaussian 09 at Mon Jan 27 13:02:30 2020.
