 Gaussian 09, Revision D.01,
 Gaussian 09:  ES64L-G09RevD.01 24-Apr-2013

 -----------------------------
 # b3lyp 6-31G(2df,p) opt Freq
 -----------------------------

 -----
 titel
 -----
 Symbolic Z-matrix:
 Charge =  0 Multiplicity = 1

 SCF Done:  E(RB3LYP) =  -423.169767974     A.U. after   15 cycles
 Optimization completed.
    -- Stationary point found.
 Normal termination of Gaussian 09 at Tue Jan 28 08:22:32 2020.

 ----------------------------------------------------------------------
 #N Geom=AllCheck Guess=TCheck SCRF=Check GenChk RB3LYP/6-31G(2df,p) Fr
 eq
 ----------------------------------------------------------------------

 Structure from the checkpoint file:  "/scratch/puck/g09_fa4811db-fb36-4f35-9392-11cd37046fc6/Gau-60149.chk"
 -----
 titel
 -----
 Charge =  0 Multiplicity = 1

                         Standard orientation:
 ---------------------------------------------------------------------
 Center     Atomic      Atomic             Coordinates (Angstroms)
 Number     Number       Type             X           Y           Z
 ---------------------------------------------------------------------
      1          6           0       -2.480840   -0.810444    0.549097
      2          6           0       -0.980863   -0.812888    0.847515
      3          6           0       -0.154940   -0.101843   -0.256625
      4          8           0       -0.420095   -0.706087   -1.499184
      5          6           0       -0.456831    1.339606   -0.301328
      6          6           0       -0.683807    2.520174   -0.329529
      7          6           0        1.368845   -0.251360    0.040669
      8          6           0        1.917503    0.263538    1.346991
      9          8           0        2.057004   -0.794676   -0.793674
     10          1           0       -2.679618   -1.293353   -0.410062
     11          1           0       -3.025862   -1.349071    1.329761
     12          1           0       -2.868885    0.211352    0.504746
     13          1           0       -0.784579   -0.330434    1.810915
     14          1           0       -0.612479   -1.843888    0.910293
     15          1           0        0.454113   -0.956965   -1.845503
     16          1           0       -0.896349    3.560218   -0.371854
     17          1           0        3.003042    0.344697    1.280091
     18          1           0        1.473093    1.226529    1.607423
     19          1           0        1.667851   -0.443677    2.146315
 ---------------------------------------------------------------------

 SCF Done:  E(RB3LYP) =  -423.169767974     A.U. after    1 cycles

 The electronic state is 1-A.
 Alpha  occ. eigenvalues --  -19.15716 -19.13496 -10.28959 -10.26915 -10.20219
 Alpha  occ. eigenvalues --  -10.19636 -10.19028 -10.18518 -10.17372  -1.07442
 Alpha  occ. eigenvalues --   -1.01960  -0.81290  -0.75716  -0.74919  -0.69202
 Alpha  occ. eigenvalues --   -0.61284  -0.57643  -0.53964  -0.51179  -0.49376
 Alpha  occ. eigenvalues --   -0.46416  -0.45024  -0.43897  -0.43028  -0.41614
 Alpha  occ. eigenvalues --   -0.38521  -0.37398  -0.36115  -0.35041  -0.34154
 Alpha  occ. eigenvalues --   -0.30283  -0.28494  -0.27378  -0.25850
 Alpha virt. eigenvalues --   -0.03469   0.03569   0.05310   0.08329   0.11922
 Alpha virt. eigenvalues --    0.12134   0.13816   0.14475   0.15290   0.16153
 Alpha virt. eigenvalues --    0.17118   0.17451   0.19095   0.20378   0.21674

 Mulliken charges:
               1
     1  C   -0.390771
     2  C   -0.206485
     3  C    0.098331
     4  O   -0.449104
     5  C    0.351951
     6  C   -0.510665
     7  C    0.358842
     8  C   -0.486964
     9  O   -0.322438
    10  H    0.144198
    11  H    0.111181
    12  H    0.128841
    13  H    0.102882
    14  H    0.107026
    15  H    0.294506
    16  H    0.203819
    17  H    0.150416
    18  H    0.158135
    19  H    0.156297
 Sum of Mulliken charges =   0.00000

 Dipole moment (field-independent basis, Debye):
    X=              0.1562    Y=              0.9876    Z=              2.6378  Tot=              2.8210
 Quadrupole moment (field-independent basis, Debye-Ang):
   XX=            -55.8466   YY=            -48.8797   ZZ=            -53.7687
   XY=              0.6619   XZ=              1.4520   YZ=             -1.3384

  Exact polarizability:  79.691  -4.455  85.727  -0.057   1.033  67.892
 Approx polarizability: 106.734 -13.569 137.442  -4.589   6.803 103.098

                      1                      2                      3
                      A                      A                      A
 Frequencies --     63.6664                98.1066               116.0437
 Red. masses --      3.4892                 1.6727                 1.5978
 Frc consts  --      0.0083                 0.0095                 0.0127
 IR Inten    --      0.3293                 0.0630                 0.3218

                      4                      5                      6
                      A                      A                      A
 Frequencies --    139.8325               157.0718               193.6810
 Red. masses --      3.3753                 2.4881                 2.5367
 Frc consts  --      0.0389                 0.0362                 0.0561
 IR Inten    --      0.5164                 0.5123                 1.6867

                      7                      8                      9
                      A                      A                      A
 Frequencies --    240.8152               296.2641               342.0090
 Red. masses --      1.3416                 3.2436                 3.5236
 Frc consts  --      0.0458                 0.1677                 0.2428
 IR Inten    --      0.1999                 7.5376                 7.2979

                     10                     11                     12
                      A                      A                      A
 Frequencies --    386.8163               422.6746               470.6948
 Red. masses --      3.4445                 4.2994                 5.8032
 Frc consts  --      0.3037                 0.4526                 0.7575
 IR Inten    --     19.2162                 4.9555                 0.7240

                     13                     14                     15
                      A                      A                      A
 Frequencies --    478.2755               566.5187               596.8018
 Red. masses --      1.2326                 4.5380                 3.2002
 Frc consts  --      0.1661                 0.8581                 0.6716
 IR Inten    --     44.7762                 8.3755                 3.3090

                     16                     17                     18
                      A                      A                      A
 Frequencies --    618.1484               633.3752               664.6964
 Red. masses --      2.8743                 1.2369                 1.2696
 Frc consts  --      0.6471                 0.2924                 0.3305
 IR Inten    --     13.2502                45.0318                37.9721

                     19                     20                     21
                      A                      A                      A
 Frequencies --    690.7183               797.1208               934.0362
 Red. masses --      3.6604                 1.2527                 3.4026
 Frc consts  --      1.0289                 0.4690                 1.7490
 IR Inten    --      0.9032                 0.2724                10.7500

                     22                     23                     24
                      A                      A                      A
 Frequencies --    956.4092               976.5053              1009.1330
 Red. masses --      2.0071                 2.3843                 1.7590
 Frc consts  --      1.0817                 1.3395                 1.0554
 IR Inten    --     16.5544                18.6341                17.4255

                     25                     26                     27
                      A                      A                      A
 Frequencies --   1050.8864              1085.8128              1142.0993
 Red. masses --      1.8447                 2.8161                 3.2181
 Frc consts  --      1.2003                 1.9562                 2.4732
 IR Inten    --     11.3233                23.0798                43.7890

                     28                     29                     30
                      A                      A                      A
 Frequencies --   1184.9564              1225.3298              1316.9907
 Red. masses --      2.4493                 3.5776                 1.2222
 Frc consts  --      2.0262                 3.1648                 1.2490
 IR Inten    --     54.6837                55.7187                15.0777

                     31                     32                     33
                      A                      A                      A
 Frequencies --   1350.3304              1384.9301              1406.0693
 Red. masses --      1.3602                 1.3032                 1.2284
 Frc consts  --      1.4613                 1.4727                 1.4309
 IR Inten    --     14.4707                32.8323                 7.2975

                     34                     35                     36
                      A                      A                      A
 Frequencies --   1419.6579              1462.0413              1470.5217
 Red. masses --      1.3331                 1.0526                 1.0699
 Frc consts  --      1.5830                 1.3257                 1.3632
 IR Inten    --    102.0873                 7.5012                 3.3196

                     37                     38                     39
                      A                      A                      A
 Frequencies --   1477.6051              1494.6717              1509.3464
 Red. masses --      1.0611                 1.0382                 1.0537
 Frc consts  --      1.3650                 1.3665                 1.4143
 IR Inten    --      5.2671                 5.4232                 3.0521

                     40                     41                     42
                      A                      A                      A
 Frequencies --   1803.9031              2223.7462              3032.7815
 Red. masses --     10.9068                 5.9089                 1.0595
 Frc consts  --     20.9109                17.2159                 5.7418
 IR Inten    --    147.0830                 1.1702                20.2948

                     43                     44                     45
                      A                      A                      A
 Frequencies --   3047.2096              3047.9712              3080.4385
 Red. masses --      1.0393                 1.0360                 1.1012
 Frc consts  --      5.6859                 5.6709                 6.1567
 IR Inten    --      5.3585                18.9246                15.7374

                     46                     47                     48
                      A                      A                      A
 Frequencies --   3115.1746              3119.1259              3136.5160
 Red. masses --      1.1017                 1.0928                 1.1016
 Frc consts  --      6.2991                 6.2640                 6.3851
 IR Inten    --     24.9309                 3.6491                15.7060

                     49                     50                     51
                      A                      A                      A
 Frequencies --   3159.9137              3498.3790              3641.7798
 Red. masses --      1.1046                 1.1619                 1.0642
 Frc consts  --      6.4982                 8.3781                 8.3158
 IR Inten    --      5.6287                65.5096               111.4299

 - Thermochemistry -
 -------------------
 Temperature   298.150 Kelvin.  Pressure   1.00000 Atm.
 Atom     1 has atomic number  6 and mass  12.00000

 Molecular mass:   126.06808 amu.
 Principal axes and moments of inertia in atomic units:
                           1         2         3
     Eigenvalues --   918.543861334.373181527.29029
           X            0.99816   0.05888   0.01467
           Y           -0.05848   0.99793  -0.02682
           Z           -0.01621   0.02591   0.99953
 This molecule is an asymmetric top.
 Rotational symmetry number  1.
 Warning -- assumption of classical behavior for rotation
           may cause significant error
 Rotational temperatures (Kelvin)      0.09429     0.06491     0.05671
 Rotational constants (GHZ):           1.96479     1.35250     1.18166
 Zero-point vibrational energy     405160.8 (Joules/Mol)
                                   96.83576 (Kcal/Mol)
 Warning -- explicit consideration of  16 degrees of freedom as
           vibrations may cause significant error
 Vibrational temperatures:     91.60   141.15   166.96   201.19   225.99
          (Kelvin)            278.66   346.48   426.26   492.07   556.54
                              608.13   677.22   688.13   815.09   858.66
                              889.38   911.28   956.35   993.79  1146.88
                             1343.87  1376.06  1404.97  1451.92  1511.99
                             1562.24  1643.22  1704.89  1762.97  1894.85
                             1942.82  1992.60  2023.02  2042.57  2103.55
                             2115.75  2125.94  2150.50  2171.61  2595.41
                             3199.47  4363.49  4384.25  4385.35  4432.06
                             4482.04  4487.72  4512.74  4546.41  5033.38
                             5239.70

 Zero-point correction=                           0.154318 (Hartree/Particle)
 Thermal correction to Energy=                    0.164959
 Thermal correction to Enthalpy=                  0.165903
 Thermal correction to Gibbs Free Energy=         0.118714
 Sum of electronic and zero-point Energies=           -423.015450
 Sum of electronic and thermal Energies=              -423.004809
 Sum of electronic and thermal Enthalpies=            -423.003865
 Sum of electronic and thermal Free Energies=         -423.051054

                     E (Thermal)             CV                S
                      KCal/Mol        Cal/Mol-Kelvin    Cal/Mol-Kelvin
 Total                  103.513             38.487             99.318
 Electronic               0.000              0.000              0.000
 Translational            0.889              2.981             40.409
 Rotational               0.889              2.981             29.017
 Vibrational            101.736             32.525             29.893
 Vibration     1          0.597              1.972              4.340
 Vibration     2          0.604              1.951              3.492
 Vibration     3          0.608              1.936              3.165
 Vibration     4          0.615              1.913              2.806
 Vibration     5          0.621              1.895              2.585
 Vibration     6          0.635              1.849              2.192
 Vibration     7          0.658              1.778              1.797
 Vibration     8          0.690              1.681              1.438
 Vibration     9          0.721              1.592              1.203
 Vibration    10          0.755              1.498              1.012
 Vibration    11          0.785              1.421              0.883
 Vibration    12          0.828              1.315              0.736
 Vibration    13          0.835              1.298              0.715
 Vibration    14          0.922              1.104              0.511
 Vibration    15          0.955              1.039              0.455
 Vibration    16          0.978              0.994              0.419

 Optimization completed.
    -- Stationary point found.
 Normal termination of Gaussian 09 at Tue Jan 28 10:16:47 2020.
