 Gaussian 09, Revision D.01,
 Gaussian 09:  ES64L-G09RevD.01 24-Apr-2013

 -----------------------------
 # b3lyp 6-31G(2df,p) opt Freq
 -----------------------------

 -----
 titel
 -----
 Symbolic Z-matrix:
 Charge =  0 Multiplicity = 1

 SCF Done:  E(RB3LYP) =  -423.180720531     A.U. after   14 cycles
 Optimization completed.
    -- Stationary point found.
 Normal termination of Gaussian 09 at Tue Jan 28 02:54:19 2020.

 ----------------------------------------------------------------------
 #N Geom=AllCheck Guess=TCheck SCRF=Check GenChk RB3LYP/6-31G(2df,p) Fr
 eq
 ----------------------------------------------------------------------

 Structure from the checkpoint file:  "/scratch/puck/g09_0ae80245-53b7-4c80-bee1-5c0998531228/Gau-67028.chk"
 -----
 titel
 -----
 Charge =  0 Multiplicity = 1

                         Standard orientation:
 ---------------------------------------------------------------------
 Center     Atomic      Atomic             Coordinates (Angstroms)
 Number     Number       Type             X           Y           Z
 ---------------------------------------------------------------------
      1          8           0       -3.070327   -0.085621   -0.095697
      2          6           0       -1.733487    0.345452   -0.020872
      3          6           0       -0.819341   -0.225083    1.098586
      4          6           0        0.297478   -0.383357    0.028333
      5          6           0        1.430693   -1.446067    0.058985
      6          6           0        2.514788   -0.328103   -0.041052
      7          6           0        1.375412    0.705410   -0.015071
      8          8           0        1.329153    1.903603   -0.011028
      9          6           0       -0.808908   -0.306587   -1.064749
     10          1           0       -3.593890    0.435330    0.521212
     11          1           0       -1.652855    1.439133   -0.061484
     12          1           0       -0.602350    0.400409    1.968105
     13          1           0       -1.186624   -1.203763    1.422494
     14          1           0        1.468510   -2.020291    0.987480
     15          1           0        1.414987   -2.143551   -0.781272
     16          1           0        3.213972   -0.246542    0.796008
     17          1           0        3.092858   -0.311226   -0.969905
     18          1           0       -0.590618    0.244633   -1.981863
     19          1           0       -1.174416   -1.307976   -1.311933
 ---------------------------------------------------------------------

 SCF Done:  E(RB3LYP) =  -423.180720531     A.U. after    1 cycles

 The electronic state is 1-A.
 Alpha  occ. eigenvalues --  -19.13851 -19.13499 -10.26376 -10.23448 -10.19895
 Alpha  occ. eigenvalues --  -10.19180 -10.19092 -10.18714 -10.18569  -1.04266
 Alpha  occ. eigenvalues --   -1.02175  -0.86540  -0.80252  -0.66993  -0.65340
 Alpha  occ. eigenvalues --   -0.62698  -0.58032  -0.52569  -0.50171  -0.47544
 Alpha  occ. eigenvalues --   -0.46468  -0.45074  -0.41988  -0.40690  -0.40309
 Alpha  occ. eigenvalues --   -0.38220  -0.37753  -0.36195  -0.34187  -0.33295
 Alpha  occ. eigenvalues --   -0.31281  -0.30231  -0.26217  -0.23682
 Alpha virt. eigenvalues --   -0.02095   0.07064   0.09103   0.10546   0.11322
 Alpha virt. eigenvalues --    0.12735   0.13328   0.15775   0.16021   0.17639
 Alpha virt. eigenvalues --    0.18649   0.18891   0.20259   0.20507   0.20916

 Mulliken charges:
               1
     1  O   -0.431691
     2  C    0.154246
     3  C   -0.327636
     4  C    0.234725
     5  C   -0.331254
     6  C   -0.345959
     7  C    0.357198
     8  O   -0.306841
     9  C   -0.302346
    10  H    0.283903
    11  H    0.091143
    12  H    0.104575
    13  H    0.109266
    14  H    0.110220
    15  H    0.109736
    16  H    0.131617
    17  H    0.133110
    18  H    0.110284
    19  H    0.115703
 Sum of Mulliken charges =   0.00000

 Dipole moment (field-independent basis, Debye):
    X=              0.0186    Y=             -1.6042    Z=              0.8707  Tot=              1.8254
 Quadrupole moment (field-independent basis, Debye-Ang):
   XX=            -51.5070   YY=            -58.0243   ZZ=            -50.7817
   XY=             -7.1289   XZ=             -3.8020   YZ=              0.6015

  Exact polarizability:  90.442  -1.970  73.290  -1.397   0.654  65.749
 Approx polarizability: 114.755   0.260 117.103  -1.262   1.489  98.822

                      1                      2                      3
                      A                      A                      A
 Frequencies --     29.1728                81.8364               158.8096
 Red. masses --      2.3952                 4.4299                 3.4353
 Frc consts  --      0.0012                 0.0175                 0.0510
 IR Inten    --      2.4188                 3.0593                 4.9667

                      4                      5                      6
                      A                      A                      A
 Frequencies --    234.7869               251.7703               271.9160
 Red. masses --      2.9960                 1.7036                 1.5659
 Frc consts  --      0.0973                 0.0636                 0.0682
 IR Inten    --     12.4571                26.2964                68.5237

                      7                      8                      9
                      A                      A                      A
 Frequencies --    393.2224               422.2539               464.3606
 Red. masses --      2.9974                 3.8870                 2.4634
 Frc consts  --      0.2731                 0.4083                 0.3130
 IR Inten    --      3.4093                 4.2039                12.4381

                     10                     11                     12
                      A                      A                      A
 Frequencies --    509.7023               521.6277               708.0508
 Red. masses --      1.8607                 2.7690                 4.8878
 Frc consts  --      0.2848                 0.4439                 1.4438
 IR Inten    --      0.4453                 1.0080                 0.7666

                     13                     14                     15
                      A                      A                      A
 Frequencies --    710.7471               735.7922               836.0284
 Red. masses --      3.2224                 1.2439                 1.4724
 Frc consts  --      0.9591                 0.3968                 0.6063
 IR Inten    --      1.3120                 2.2449                 0.7447

                     16                     17                     18
                      A                      A                      A
 Frequencies --    845.4163               855.2847               929.7240
 Red. masses --      2.5634                 2.2531                 3.1073
 Frc consts  --      1.0795                 0.9711                 1.5825
 IR Inten    --      5.3578                 0.9230                 4.4147

                     19                     20                     21
                      A                      A                      A
 Frequencies --    945.0547               981.2117              1032.4728
 Red. masses --      3.2008                 2.0594                 1.3483
 Frc consts  --      1.6843                 1.1682                 0.8468
 IR Inten    --      5.6311                 6.9125                15.3837

                     22                     23                     24
                      A                      A                      A
 Frequencies --   1050.4210              1072.2282              1088.4547
 Red. masses --      4.3359                 2.7138                 1.3452
 Frc consts  --      2.8187                 1.8382                 0.9390
 IR Inten    --    123.1386                37.9057                 0.2752

                     25                     26                     27
                      A                      A                      A
 Frequencies --   1140.3812              1153.3403              1185.7468
 Red. masses --      2.2680                 2.2356                 1.8427
 Frc consts  --      1.7378                 1.7521                 1.5265
 IR Inten    --      2.5035                 0.4810                19.9256

                     28                     29                     30
                      A                      A                      A
 Frequencies --   1201.9715              1212.4620              1230.2808
 Red. masses --      1.7967                 1.2451                 1.3003
 Frc consts  --      1.5294                 1.0785                 1.1596
 IR Inten    --     36.0075                 0.2936                 0.1205

                     31                     32                     33
                      A                      A                      A
 Frequencies --   1235.8882              1264.4605              1271.8345
 Red. masses --      1.6129                 1.3005                 1.7270
 Frc consts  --      1.4515                 1.2251                 1.6459
 IR Inten    --      8.6241                 8.8151                10.5623

                     34                     35                     36
                      A                      A                      A
 Frequencies --   1292.5580              1324.7308              1430.8101
 Red. masses --      1.9547                 1.4291                 1.3889
 Frc consts  --      1.9241                 1.4776                 1.6753
 IR Inten    --     32.4868                64.6323                 8.2727

                     37                     38                     39
                      A                      A                      A
 Frequencies --   1435.9198              1460.9989              1485.4101
 Red. masses --      1.0947                 1.0901                 1.1011
 Frc consts  --      1.3298                 1.3710                 1.4314
 IR Inten    --      4.5730                 2.1743                 0.6962

                     40                     41                     42
                      A                      A                      A
 Frequencies --   1490.6541              1875.4412              3025.1770
 Red. masses --      1.1674                12.6375                 1.0855
 Frc consts  --      1.5284                26.1889                 5.8529
 IR Inten    --      5.6710               214.6329                23.5631

                     43                     44                     45
                      A                      A                      A
 Frequencies --   3050.6820              3058.8894              3059.0235
 Red. masses --      1.0562                 1.0584                 1.0580
 Frc consts  --      5.7915                 5.8350                 5.8332
 IR Inten    --     31.1759                20.3185                 5.6411

                     46                     47                     48
                      A                      A                      A
 Frequencies --   3070.3742              3105.3191              3114.2619
 Red. masses --      1.0599                 1.1064                 1.1090
 Frc consts  --      5.8872                 6.2858                 6.3370
 IR Inten    --     21.1819                 0.2364                20.7311

                     49                     50                     51
                      A                      A                      A
 Frequencies --   3120.3960              3124.4222              3819.4879
 Red. masses --      1.1084                 1.1071                 1.0662
 Frc consts  --      6.3588                 6.3674                 9.1639
 IR Inten    --     21.1812                19.3756                25.5191

 - Thermochemistry -
 -------------------
 Temperature   298.150 Kelvin.  Pressure   1.00000 Atm.
 Atom     1 has atomic number  8 and mass  15.99491

 Molecular mass:   126.06808 amu.
 Principal axes and moments of inertia in atomic units:
                           1         2         3
     Eigenvalues --   546.006621580.030421816.08103
           X            0.99950  -0.03123  -0.00576
           Y            0.03126   0.99950   0.00390
           Z            0.00563  -0.00408   0.99998
 This molecule is an asymmetric top.
 Rotational symmetry number  1.
 Warning -- assumption of classical behavior for rotation
           may cause significant error
 Rotational temperatures (Kelvin)      0.15863     0.05482     0.04769
 Rotational constants (GHZ):           3.30535     1.14222     0.99376
 Zero-point vibrational energy     414932.3 (Joules/Mol)
                                   99.17120 (Kcal/Mol)
 Warning -- explicit consideration of  11 degrees of freedom as
           vibrations may cause significant error
 Vibrational temperatures:     41.97   117.74   228.49   337.81   362.24
          (Kelvin)            391.23   565.76   607.53   668.11   733.35
                              750.51  1018.73  1022.61  1058.64  1202.86
                             1216.36  1230.56  1337.66  1359.72  1411.74
                             1485.50  1511.32  1542.70  1566.04  1640.75
                             1659.40  1706.02  1729.37  1744.46  1770.10
                             1778.17  1819.27  1829.88  1859.70  1905.99
                             2058.61  2065.97  2102.05  2137.17  2144.72
                             2698.34  4352.55  4389.25  4401.05  4401.25
                             4417.58  4467.86  4480.72  4489.55  4495.34
                             5495.38

 Zero-point correction=                           0.158039 (Hartree/Particle)
 Thermal correction to Energy=                    0.166844
 Thermal correction to Enthalpy=                  0.167788
 Thermal correction to Gibbs Free Energy=         0.123576
 Sum of electronic and zero-point Energies=           -423.022681
 Sum of electronic and thermal Energies=              -423.013877
 Sum of electronic and thermal Enthalpies=            -423.012932
 Sum of electronic and thermal Free Energies=         -423.057145

                     E (Thermal)             CV                S
                      KCal/Mol        Cal/Mol-Kelvin    Cal/Mol-Kelvin
 Total                  104.696             32.959             93.052
 Electronic               0.000              0.000              0.000
 Translational            0.889              2.981             40.409
 Rotational               0.889              2.981             28.840
 Vibrational            102.919             26.997             23.804
 Vibration     1          0.593              1.984              5.885
 Vibration     2          0.600              1.962              3.846
 Vibration     3          0.621              1.893              2.564
 Vibration     4          0.655              1.788              1.842
 Vibration     5          0.664              1.760              1.718
 Vibration     6          0.675              1.725              1.584
 Vibration     7          0.760              1.485              0.988
 Vibration     8          0.785              1.422              0.884
 Vibration     9          0.822              1.329              0.754
 Vibration    10          0.865              1.228              0.634
 Vibration    11          0.877              1.202              0.606

 Optimization completed.
    -- Stationary point found.
 Normal termination of Gaussian 09 at Tue Jan 28 03:39:58 2020.
