 Gaussian 09, Revision D.01,
 Gaussian 09:  ES64L-G09RevD.01 24-Apr-2013

 -----------------------------
 # b3lyp 6-31G(2df,p) opt Freq
 -----------------------------

 -----
 titel
 -----
 Symbolic Z-matrix:
 Charge =  0 Multiplicity = 1

 SCF Done:  E(RB3LYP) =  -423.193342807     A.U. after   14 cycles
 Optimization completed.
    -- Stationary point found.
 Normal termination of Gaussian 09 at Mon Jan 27 23:04:42 2020.

 ----------------------------------------------------------------------
 #N Geom=AllCheck Guess=TCheck SCRF=Check GenChk RB3LYP/6-31G(2df,p) Fr
 eq
 ----------------------------------------------------------------------

 Structure from the checkpoint file:  "/scratch/puck/g09_6b0d7fdf-86fa-4ec3-a6c9-fde9cf4adc52/Gau-101800.chk"
 -----
 titel
 -----
 Charge =  0 Multiplicity = 1

                         Standard orientation:
 ---------------------------------------------------------------------
 Center     Atomic      Atomic             Coordinates (Angstroms)
 Number     Number       Type             X           Y           Z
 ---------------------------------------------------------------------
      1          6           0        1.230826    1.786248   -0.541556
      2          6           0        1.180217    0.613130    0.423296
      3          6           0        1.200078   -0.852152   -0.099685
      4          6           0        0.435744   -1.250377    1.186904
      5          6           0       -0.146599    0.200380    1.162252
      6          6           0       -1.268481    0.206621    0.153910
      7          8           0       -2.329582    0.763687    0.296042
      8          6           0       -0.962400   -0.614683   -1.107103
      9          8           0        0.399968   -0.999216   -1.263142
     10          1           0        0.996445    2.724729   -0.028550
     11          1           0        2.232635    1.882586   -0.973221
     12          1           0        0.528264    1.670331   -1.370702
     13          1           0        1.958759    0.718685    1.186674
     14          1           0        2.155217   -1.324887   -0.334174
     15          1           0       -0.255977   -2.094067    1.130621
     16          1           0        1.112748   -1.388125    2.032220
     17          1           0       -0.436985    0.703583    2.084849
     18          1           0       -1.604137   -1.508314   -1.074120
     19          1           0       -1.266364   -0.035291   -1.984911
 ---------------------------------------------------------------------

 SCF Done:  E(RB3LYP) =  -423.193342807     A.U. after    1 cycles

 The electronic state is 1-A.
 Alpha  occ. eigenvalues --  -19.14958 -19.13096 -10.27022 -10.24403 -10.23757
 Alpha  occ. eigenvalues --  -10.20346 -10.20244 -10.19908 -10.18230  -1.05120
 Alpha  occ. eigenvalues --   -1.03593  -0.86166  -0.74984  -0.73991  -0.65457
 Alpha  occ. eigenvalues --   -0.63104  -0.60560  -0.52528  -0.49643  -0.48351
 Alpha  occ. eigenvalues --   -0.46647  -0.44846  -0.43587  -0.42490  -0.41086
 Alpha  occ. eigenvalues --   -0.39774  -0.38311  -0.37752  -0.35741  -0.34710
 Alpha  occ. eigenvalues --   -0.32349  -0.30030  -0.25721  -0.23934
 Alpha virt. eigenvalues --   -0.01624   0.07495   0.09293   0.10818   0.11689
 Alpha virt. eigenvalues --    0.13042   0.14432   0.14451   0.16395   0.17531
 Alpha virt. eigenvalues --    0.18226   0.18665   0.19803   0.20388   0.22386

 Mulliken charges:
               1
     1  C   -0.428065
     2  C    0.008160
     3  C    0.115410
     4  C   -0.271984
     5  C   -0.149165
     6  C    0.385126
     7  O   -0.327445
     8  C   -0.181422
     9  O   -0.273077
    10  H    0.125299
    11  H    0.122055
    12  H    0.130890
    13  H    0.085203
    14  H    0.081479
    15  H    0.111157
    16  H    0.115291
    17  H    0.082189
    18  H    0.130681
    19  H    0.138216
 Sum of Mulliken charges =   0.00000

 Dipole moment (field-independent basis, Debye):
    X=              2.3100    Y=             -0.6808    Z=              0.8292  Tot=              2.5470
 Quadrupole moment (field-independent basis, Debye-Ang):
   XX=            -57.9069   YY=            -53.2132   ZZ=            -52.9877
   XY=              4.1528   XZ=              3.5169   YZ=             -2.1030

  Exact polarizability:  80.692  -0.943  72.575   2.664  -0.743  70.607
 Approx polarizability: 121.867  -7.350 104.656   1.888   2.104 104.601

                      1                      2                      3
                      A                      A                      A
 Frequencies --     90.5712               160.2973               162.6649
 Red. masses --      3.8557                 1.9518                 1.1978
 Frc consts  --      0.0186                 0.0295                 0.0187
 IR Inten    --      5.6760                 1.8538                 0.8167

                      4                      5                      6
                      A                      A                      A
 Frequencies --    225.2196               298.5462               410.3408
 Red. masses --      3.4903                 2.6773                 2.5479
 Frc consts  --      0.1043                 0.1406                 0.2528
 IR Inten    --      2.9001                 0.3333                 0.9980

                      7                      8                      9
                      A                      A                      A
 Frequencies --    445.7663               469.7507               537.9849
 Red. masses --      4.9104                 5.1073                 4.0699
 Frc consts  --      0.5749                 0.6640                 0.6940
 IR Inten    --     16.1915                 1.5561                 3.5772

                     10                     11                     12
                      A                      A                      A
 Frequencies --    549.3361               617.4413               704.1746
 Red. masses --      3.1465                 3.1539                 3.6127
 Frc consts  --      0.5594                 0.7084                 1.0555
 IR Inten    --      2.3840                 2.2055                 5.3861

                     13                     14                     15
                      A                      A                      A
 Frequencies --    768.7628               837.0280               851.0437
 Red. masses --      2.2779                 2.8308                 2.4650
 Frc consts  --      0.7932                 1.1685                 1.0519
 IR Inten    --      3.2208                 7.9679                 6.8518

                     16                     17                     18
                      A                      A                      A
 Frequencies --    904.5453               925.0864               962.2779
 Red. masses --      2.1779                 2.2033                 1.7705
 Frc consts  --      1.0499                 1.1110                 0.9659
 IR Inten    --      6.5637                15.1923                11.7345

                     19                     20                     21
                      A                      A                      A
 Frequencies --    995.4752              1039.0333              1046.5643
 Red. masses --      2.6054                 1.5227                 1.5951
 Frc consts  --      1.5212                 0.9685                 1.0294
 IR Inten    --     10.7008                 8.0881                11.9932

                     22                     23                     24
                      A                      A                      A
 Frequencies --   1065.7136              1078.9612              1126.0559
 Red. masses --      1.5624                 2.6964                 1.7344
 Frc consts  --      1.0455                 1.8495                 1.2957
 IR Inten    --      5.9166                38.2580                 7.7117

                     25                     26                     27
                      A                      A                      A
 Frequencies --   1145.2619              1176.7161              1218.6392
 Red. masses --      3.0956                 2.3998                 1.9452
 Frc consts  --      2.3922                 1.9578                 1.7020
 IR Inten    --     12.7109                13.5774                41.8610

                     28                     29                     30
                      A                      A                      A
 Frequencies --   1231.6611              1243.9417              1265.4787
 Red. masses --      1.1295                 1.4325                 1.7899
 Frc consts  --      1.0096                 1.3060                 1.6889
 IR Inten    --      0.4010                19.4991                16.3248

                     31                     32                     33
                      A                      A                      A
 Frequencies --   1266.0536              1323.0333              1345.5460
 Red. masses --      1.6275                 1.7951                 1.2836
 Frc consts  --      1.5370                 1.8513                 1.3693
 IR Inten    --      7.2980                 7.2821                 1.1478

                     34                     35                     36
                      A                      A                      A
 Frequencies --   1379.1509              1384.4796              1418.3438
 Red. masses --      1.4347                 1.3697                 1.2576
 Frc consts  --      1.6078                 1.5469                 1.4906
 IR Inten    --      1.4284                 7.5617                 3.2678

                     37                     38                     39
                      A                      A                      A
 Frequencies --   1472.1331              1489.1865              1494.8142
 Red. masses --      1.0807                 1.0481                 1.1037
 Frc consts  --      1.3800                 1.3695                 1.4530
 IR Inten    --      7.4971                 1.8723                 2.7834

                     40                     41                     42
                      A                      A                      A
 Frequencies --   1499.9465              1827.5209              2995.6514
 Red. masses --      1.0517                12.0843                 1.0693
 Frc consts  --      1.3941                23.7792                 5.6536
 IR Inten    --      6.8326               199.0541                29.3412

                     43                     44                     45
                      A                      A                      A
 Frequencies --   3038.9619              3047.2063              3069.8876
 Red. masses --      1.0397                 1.0812                 1.0590
 Frc consts  --      5.6575                 5.9149                 5.8800
 IR Inten    --     20.9753                16.0155                18.2669

                     46                     47                     48
                      A                      A                      A
 Frequencies --   3074.5272              3101.1032              3101.7288
 Red. masses --      1.0918                 1.0987                 1.0919
 Frc consts  --      6.0808                 6.2254                 6.1891
 IR Inten    --     19.0266                 1.2121                66.3947

                     49                     50                     51
                      A                      A                      A
 Frequencies --   3113.9467              3121.3418              3129.0310
 Red. masses --      1.0900                 1.0997                 1.1078
 Frc consts  --      6.2273                 6.3128                 6.3907
 IR Inten    --     16.8907                20.1964                24.7750

 - Thermochemistry -
 -------------------
 Temperature   298.150 Kelvin.  Pressure   1.00000 Atm.
 Atom     1 has atomic number  6 and mass  12.00000

 Molecular mass:   126.06808 amu.
 Principal axes and moments of inertia in atomic units:
                           1         2         3
     Eigenvalues --   805.410291053.707271150.54857
           X            0.99279   0.11660   0.02761
           Y           -0.11032   0.97937  -0.16931
           Z           -0.04678   0.16505   0.98518
 This molecule is an asymmetric top.
 Rotational symmetry number  1.
 Warning -- assumption of classical behavior for rotation
           may cause significant error
 Rotational temperatures (Kelvin)      0.10754     0.08220     0.07528
 Rotational constants (GHZ):           2.24077     1.71275     1.56859
 Zero-point vibrational energy     420176.0 (Joules/Mol)
                                  100.42446 (Kcal/Mol)
 Warning -- explicit consideration of  11 degrees of freedom as
           vibrations may cause significant error
 Vibrational temperatures:    130.31   230.63   234.04   324.04   429.54
          (Kelvin)            590.39   641.36   675.87   774.04   790.37
                              888.36  1013.15  1106.08  1204.30  1224.46
                             1301.44  1330.99  1384.50  1432.26  1494.94
                             1505.77  1533.32  1552.38  1620.14  1647.77
                             1693.03  1753.35  1772.08  1789.75  1820.74
                             1821.57  1903.55  1935.94  1984.29  1991.95
                             2040.68  2118.07  2142.60  2150.70  2158.09
                             2629.39  4310.07  4372.38  4384.24  4416.88
                             4423.55  4461.79  4462.69  4480.27  4490.91
                             4501.97

 Zero-point correction=                           0.160037 (Hartree/Particle)
 Thermal correction to Energy=                    0.167994
 Thermal correction to Enthalpy=                  0.168939
 Thermal correction to Gibbs Free Energy=         0.127616
 Sum of electronic and zero-point Energies=           -423.033306
 Sum of electronic and thermal Energies=              -423.025348
 Sum of electronic and thermal Enthalpies=            -423.024404
 Sum of electronic and thermal Free Energies=         -423.065727

                     E (Thermal)             CV                S
                      KCal/Mol        Cal/Mol-Kelvin    Cal/Mol-Kelvin
 Total                  105.418             30.872             86.970
 Electronic               0.000              0.000              0.000
 Translational            0.889              2.981             40.409
 Rotational               0.889              2.981             28.370
 Vibrational            103.641             24.911             18.192
 Vibration     1          0.602              1.956              3.648
 Vibration     2          0.622              1.891              2.546
 Vibration     3          0.623              1.888              2.519
 Vibration     4          0.650              1.803              1.917
 Vibration     5          0.692              1.676              1.425
 Vibration     6          0.775              1.448              0.925
 Vibration     7          0.805              1.370              0.809
 Vibration     8          0.827              1.317              0.738
 Vibration     9          0.893              1.166              0.570
 Vibration    10          0.905              1.141              0.546
 Vibration    11          0.977              0.995              0.421

 Normal termination of Gaussian 09 at Mon Jan 27 23:54:07 2020.
