 Gaussian 09, Revision D.01,
 Gaussian 09:  ES64L-G09RevD.01 24-Apr-2013

 -----------------------------
 # b3lyp 6-31G(2df,p) opt Freq
 -----------------------------

 -----
 titel
 -----
 Symbolic Z-matrix:
 Charge =  0 Multiplicity = 1

 SCF Done:  E(RB3LYP) =  -423.207866741     A.U. after   14 cycles
 Optimization completed.
    -- Stationary point found.
 Normal termination of Gaussian 09 at Tue Jan 28 03:55:12 2020.

 ----------------------------------------------------------------------
 #N Geom=AllCheck Guess=TCheck SCRF=Check GenChk RB3LYP/6-31G(2df,p) Fr
 eq
 ----------------------------------------------------------------------

 Structure from the checkpoint file:  "/scratch/puck/g09_1990dcba-1917-406f-8b23-f0c74e5397eb/Gau-196262.chk"
 -----
 titel
 -----
 Charge =  0 Multiplicity = 1

                         Standard orientation:
 ---------------------------------------------------------------------
 Center     Atomic      Atomic             Coordinates (Angstroms)
 Number     Number       Type             X           Y           Z
 ---------------------------------------------------------------------
      1          6           0       -1.393853    1.934010    0.609497
      2          6           0       -0.292756    1.064303    0.091243
      3          6           0        0.753433    1.413894   -0.664990
      4          6           0        1.649051    0.248229   -1.002012
      5          6           0        1.169585   -0.855034   -0.021736
      6          8           0        1.988711   -0.934482    1.130991
      7          6           0       -0.283549   -0.439744    0.354199
      8          6           0       -1.334284   -1.079757   -0.534038
      9          8           0       -2.408978   -1.470450   -0.156919
     10          1           0       -1.412097    1.933792    1.706634
     11          1           0       -1.283920    2.967005    0.269356
     12          1           0       -2.374596    1.564879    0.286684
     13          1           0        0.946562    2.424624   -1.009404
     14          1           0        1.533446   -0.060555   -2.049651
     15          1           0        2.716221    0.446847   -0.851798
     16          1           0        1.212048   -1.853220   -0.466727
     17          1           0        1.984175   -0.065804    1.549754
     18          1           0       -0.514113   -0.703096    1.391464
     19          1           0       -1.051358   -1.130420   -1.611863
 ---------------------------------------------------------------------

 SCF Done:  E(RB3LYP) =  -423.207866741     A.U. after    1 cycles

 The electronic state is 1-A.
 Alpha  occ. eigenvalues --  -19.14390 -19.14086 -10.27270 -10.24485 -10.20392
 Alpha  occ. eigenvalues --  -10.19778 -10.19315 -10.19144 -10.19113  -1.04793
 Alpha  occ. eigenvalues --   -1.02849  -0.85709  -0.75486  -0.73810  -0.67521
 Alpha  occ. eigenvalues --   -0.61527  -0.58228  -0.53856  -0.51118  -0.47712
 Alpha  occ. eigenvalues --   -0.45558  -0.45269  -0.43492  -0.42557  -0.41767
 Alpha  occ. eigenvalues --   -0.39194  -0.38470  -0.37218  -0.36671  -0.35350
 Alpha  occ. eigenvalues --   -0.32646  -0.28080  -0.26372  -0.23892
 Alpha virt. eigenvalues --   -0.03031   0.02152   0.07946   0.09941   0.10234
 Alpha virt. eigenvalues --    0.11562   0.13485   0.13766   0.16403   0.16922
 Alpha virt. eigenvalues --    0.17504   0.17775   0.18274   0.21163   0.21600

 Mulliken charges:
               1
     1  C   -0.497490
     2  C    0.294620
     3  C   -0.176896
     4  C   -0.285049
     5  C    0.105413
     6  O   -0.429910
     7  C   -0.186048
     8  C    0.157159
     9  O   -0.255106
    10  H    0.131601
    11  H    0.126291
    12  H    0.145251
    13  H    0.096167
    14  H    0.114022
    15  H    0.113271
    16  H    0.092473
    17  H    0.282306
    18  H    0.095978
    19  H    0.075946
 Sum of Mulliken charges =   0.00000

 Dipole moment (field-independent basis, Debye):
    X=              1.5486    Y=              2.5311    Z=             -0.6649  Tot=              3.0409
 Quadrupole moment (field-independent basis, Debye-Ang):
   XX=            -61.6723   YY=            -54.2117   ZZ=            -51.3810
   XY=             -1.7387   XZ=             -1.5994   YZ=              2.9286

  Exact polarizability:  89.410   3.486  76.619  -9.864   0.139  69.598
 Approx polarizability: 136.384  12.561 109.702 -19.522  -3.788 109.838

                      1                      2                      3
                      A                      A                      A
 Frequencies --     46.1397                74.4623               161.0511
 Red. masses --      5.0687                 3.9458                 1.2928
 Frc consts  --      0.0064                 0.0129                 0.0198
 IR Inten    --      5.9303                 0.1159                 2.8526

                      4                      5                      6
                      A                      A                      A
 Frequencies --    187.6431               217.8640               246.1046
 Red. masses --      2.6646                 2.1979                 2.3579
 Frc consts  --      0.0553                 0.0615                 0.0841
 IR Inten    --      2.3624                 4.0429                 0.6672

                      7                      8                      9
                      A                      A                      A
 Frequencies --    312.0810               350.2742               404.6238
 Red. masses --      2.6790                 1.2392                 2.7100
 Frc consts  --      0.1537                 0.0896                 0.2614
 IR Inten    --      0.3985                40.8665                36.2741

                     10                     11                     12
                      A                      A                      A
 Frequencies --    438.8779               483.0965               550.3263
 Red. masses --      3.0285                 3.7079                 3.0077
 Frc consts  --      0.3437                 0.5099                 0.5367
 IR Inten    --      0.6142                 8.1799                20.2226

                     13                     14                     15
                      A                      A                      A
 Frequencies --    615.9587               769.5167               814.9971
 Red. masses --      3.9715                 4.5857                 1.4200
 Frc consts  --      0.8878                 1.5999                 0.5557
 IR Inten    --      5.2129                 3.5468                 4.9399

                     16                     17                     18
                      A                      A                      A
 Frequencies --    862.4372               874.4457               934.8892
 Red. masses --      1.9386                 3.5003                 2.0243
 Frc consts  --      0.8496                 1.5770                 1.0424
 IR Inten    --     27.5912                 2.8509                13.8315

                     19                     20                     21
                      A                      A                      A
 Frequencies --    955.4852              1013.3915              1029.0566
 Red. masses --      1.9997                 1.9371                 1.4705
 Frc consts  --      1.0757                 1.1721                 0.9175
 IR Inten    --      6.9862                 4.4760                10.5538

                     22                     23                     24
                      A                      A                      A
 Frequencies --   1042.1497              1066.6249              1082.5276
 Red. masses --      1.6942                 2.7774                 2.2481
 Frc consts  --      1.0841                 1.8617                 1.5522
 IR Inten    --      1.1576                14.9314                32.8017

                     25                     26                     27
                      A                      A                      A
 Frequencies --   1094.6637              1154.8595              1173.5297
 Red. masses --      2.8404                 1.5385                 1.3268
 Frc consts  --      2.0053                 1.2089                 1.0766
 IR Inten    --     65.7776                 4.3939                46.4402

                     28                     29                     30
                      A                      A                      A
 Frequencies --   1232.8484              1256.5217              1267.1902
 Red. masses --      1.4088                 1.8769                 1.4974
 Frc consts  --      1.2616                 1.7459                 1.4167
 IR Inten    --     10.4537                 5.4893                 4.0267

                     31                     32                     33
                      A                      A                      A
 Frequencies --   1305.8690              1315.9555              1343.9765
 Red. masses --      1.5419                 1.5220                 1.7445
 Frc consts  --      1.5492                 1.5529                 1.8566
 IR Inten    --      6.6736                 3.8835                 2.8133

                     34                     35                     36
                      A                      A                      A
 Frequencies --   1417.4773              1427.4960              1436.9319
 Red. masses --      1.2702                 1.1894                 1.2048
 Frc consts  --      1.5036                 1.4280                 1.4656
 IR Inten    --      1.6817                 3.2678                58.3377

                     37                     38                     39
                      A                      A                      A
 Frequencies --   1476.3127              1482.0275              1488.5681
 Red. masses --      1.0447                 1.0974                 1.0548
 Frc consts  --      1.3415                 1.4202                 1.3771
 IR Inten    --      6.6649                 2.9752                 6.0469

                     40                     41                     42
                      A                      A                      A
 Frequencies --   1708.5079              1822.9240              2853.9586
 Red. masses --      6.8590                10.3839                 1.0815
 Frc consts  --     11.7962                20.3304                 5.1902
 IR Inten    --      2.9463               212.2959                81.9458

                     43                     44                     45
                      A                      A                      A
 Frequencies --   3018.8172              3023.5037              3063.3937
 Red. masses --      1.0659                 1.0380                 1.0943
 Frc consts  --      5.7230                 5.5910                 6.0503
 IR Inten    --     26.0167                21.4700                19.5259

                     46                     47                     48
                      A                      A                      A
 Frequencies --   3066.5837              3072.5964              3076.3159
 Red. masses --      1.0858                 1.0977                 1.0873
 Frc consts  --      6.0161                 6.1056                 6.0629
 IR Inten    --     11.9648                11.6841                32.5241

                     49                     50                     51
                      A                      A                      A
 Frequencies --   3115.9636              3186.6601              3792.8361
 Red. masses --      1.1004                 1.0934                 1.0657
 Frc consts  --      6.2947                 6.5417                 9.0329
 IR Inten    --     16.0544                12.8145                14.4845

 - Thermochemistry -
 -------------------
 Temperature   298.150 Kelvin.  Pressure   1.00000 Atm.
 Atom     1 has atomic number  6 and mass  12.00000

 Molecular mass:   126.06808 amu.
 Principal axes and moments of inertia in atomic units:
                           1         2         3
     Eigenvalues --   879.800741249.488411674.33535
           X            0.99704  -0.07097  -0.02944
           Y            0.07186   0.99696   0.03019
           Z            0.02721  -0.03222   0.99911
 This molecule is an asymmetric top.
 Rotational symmetry number  1.
 Warning -- assumption of classical behavior for rotation
           may cause significant error
 Rotational temperatures (Kelvin)      0.09845     0.06932     0.05173
 Rotational constants (GHZ):           2.05131     1.44438     1.07789
 Zero-point vibrational energy     413969.6 (Joules/Mol)
                                   98.94111 (Kcal/Mol)
 Warning -- explicit consideration of  13 degrees of freedom as
           vibrations may cause significant error
 Vibrational temperatures:     66.38   107.13   231.72   269.98   313.46
          (Kelvin)            354.09   449.01   503.97   582.16   631.45
                              695.07   791.80   886.23  1107.16  1172.60
                             1240.85  1258.13  1345.10  1374.73  1458.04
                             1480.58  1499.42  1534.63  1557.51  1574.97
                             1661.58  1688.45  1773.79  1807.85  1823.20
                             1878.85  1893.36  1933.68  2039.43  2053.85
                             2067.42  2124.08  2132.30  2141.71  2458.16
                             2622.78  4106.20  4343.40  4350.14  4407.53
                             4412.12  4420.78  4426.13  4483.17  4584.89
                             5457.04

 Zero-point correction=                           0.157673 (Hartree/Particle)
 Thermal correction to Energy=                    0.166989
 Thermal correction to Enthalpy=                  0.167933
 Thermal correction to Gibbs Free Energy=         0.122939
 Sum of electronic and zero-point Energies=           -423.050194
 Sum of electronic and thermal Energies=              -423.040878
 Sum of electronic and thermal Enthalpies=            -423.039934
 Sum of electronic and thermal Free Energies=         -423.084927

                     E (Thermal)             CV                S
                      KCal/Mol        Cal/Mol-Kelvin    Cal/Mol-Kelvin
 Total                  104.787             33.946             94.697
 Electronic               0.000              0.000              0.000
 Translational            0.889              2.981             40.409
 Rotational               0.889              2.981             29.000
 Vibrational            103.010             27.985             25.289
 Vibration     1          0.595              1.979              4.976
 Vibration     2          0.599              1.966              4.032
 Vibration     3          0.622              1.890              2.537
 Vibration     4          0.632              1.857              2.251
 Vibration     5          0.646              1.814              1.977
 Vibration     6          0.661              1.769              1.758
 Vibration     7          0.700              1.651              1.351
 Vibration     8          0.727              1.575              1.165
 Vibration     9          0.770              1.460              0.946
 Vibration    10          0.799              1.385              0.830
 Vibration    11          0.839              1.288              0.702
 Vibration    12          0.906              1.139              0.543
 Vibration    13          0.976              0.998              0.423

 Optimization completed.
    -- Stationary point found.
 Normal termination of Gaussian 09 at Tue Jan 28 04:40:35 2020.
