 Gaussian 09, Revision D.01,
 Gaussian 09:  ES64L-G09RevD.01 24-Apr-2013

 -----------------------------
 # b3lyp 6-31G(2df,p) opt Freq
 -----------------------------

 -----
 titel
 -----
 Symbolic Z-matrix:
 Charge =  0 Multiplicity = 1

 SCF Done:  E(RB3LYP) =  -423.197138805     A.U. after   14 cycles
 SCF Done:  E(RB3LYP) =  -423.197135938     A.U. after   10 cycles
 SCF Done:  E(RB3LYP) =  -423.197139456     A.U. after    9 cycles
 Optimization completed.
    -- Stationary point found.
 Normal termination of Gaussian 09 at Tue Jan 28 12:16:07 2020.

 ----------------------------------------------------------------------
 #N Geom=AllCheck Guess=TCheck SCRF=Check GenChk RB3LYP/6-31G(2df,p) Fr
 eq
 ----------------------------------------------------------------------

 Structure from the checkpoint file:  "/scratch/puck/g09_64adccb2-dbbb-44be-acfe-744cc2b9cdc0/Gau-1512.chk"
 -----
 titel
 -----
 Charge =  0 Multiplicity = 1

                         Standard orientation:
 ---------------------------------------------------------------------
 Center     Atomic      Atomic             Coordinates (Angstroms)
 Number     Number       Type             X           Y           Z
 ---------------------------------------------------------------------
      1          6           0       -3.545311   -0.167166    0.897777
      2          6           0       -2.911427   -0.351921   -0.472956
      3          8           0       -1.507221   -0.674318   -0.366869
      4          6           0       -0.667667    0.371739   -0.232512
      5          8           0       -1.010472    1.529996   -0.200555
      6          6           0        0.699797   -0.076377   -0.135695
      7          6           0        1.860964   -0.387457   -0.046106
      8          6           0        3.267344   -0.748659    0.063606
      9          6           0        4.196825    0.464043    0.250925
     10          1           0       -4.622660   -0.006775    0.788030
     11          1           0       -3.390590   -1.053458    1.519675
     12          1           0       -3.117908    0.701405    1.403699
     13          1           0       -3.344038   -1.204162   -1.001897
     14          1           0       -3.022660    0.548253   -1.081784
     15          1           0        3.387604   -1.446325    0.902390
     16          1           0        3.558244   -1.308841   -0.834394
     17          1           0        4.113228    1.152126   -0.594133
     18          1           0        3.940572    1.013424    1.160396
     19          1           0        5.236606    0.133720    0.327175
 ---------------------------------------------------------------------

 SCF Done:  E(RB3LYP) =  -423.197139456     A.U. after    1 cycles

 The electronic state is 1-A.
 Alpha  occ. eigenvalues --  -19.17985 -19.12480 -10.31886 -10.23863 -10.22022
 Alpha  occ. eigenvalues --  -10.20034 -10.19057 -10.18460 -10.18021  -1.09882
 Alpha  occ. eigenvalues --   -1.01234  -0.81113  -0.77752  -0.74123  -0.67600
 Alpha  occ. eigenvalues --   -0.64553  -0.59243  -0.53636  -0.48575  -0.47651
 Alpha  occ. eigenvalues --   -0.46731  -0.45699  -0.44516  -0.40797  -0.40511
 Alpha  occ. eigenvalues --   -0.38511  -0.38064  -0.37276  -0.37066  -0.33940
 Alpha  occ. eigenvalues --   -0.29735  -0.29165  -0.27528  -0.26180
 Alpha virt. eigenvalues --   -0.02799   0.03823   0.09980   0.10936   0.11845
 Alpha virt. eigenvalues --    0.13495   0.14156   0.14693   0.15264   0.15927
 Alpha virt. eigenvalues --    0.16536   0.17494   0.18905   0.20553   0.20992

 Mulliken charges:
               1
     1  C   -0.385795
     2  C   -0.054444
     3  O   -0.233080
     4  C    0.257384
     5  O   -0.365933
     6  C   -0.091975
     7  C    0.257029
     8  C   -0.331337
     9  C   -0.368221
    10  H    0.120342
    11  H    0.127153
    12  H    0.146233
    13  H    0.113184
    14  H    0.133076
    15  H    0.141892
    16  H    0.142170
    17  H    0.136365
    18  H    0.136022
    19  H    0.119934
 Sum of Mulliken charges =   0.00000

 Dipole moment (field-independent basis, Debye):
    X=              0.9746    Y=             -1.8525    Z=              0.1569  Tot=              2.0991
 Quadrupole moment (field-independent basis, Debye-Ang):
   XX=            -37.2451   YY=            -57.5882   ZZ=            -52.1258
   XY=              0.2535   XZ=              0.7636   YZ=              0.0896

  Exact polarizability: 128.789  -5.776  68.191   2.407  -0.034  58.381
 Approx polarizability: 163.073 -18.328 112.343   5.650  -0.326  83.757

                      1                      2                      3
                      A                      A                      A
 Frequencies --      5.5245                55.5641                71.8655
 Red. masses --      2.4799                 3.3825                 3.7645
 Frc consts  --      0.0000                 0.0062                 0.0115
 IR Inten    --      0.1912                 2.5100                 1.7910

                      4                      5                      6
                      A                      A                      A
 Frequencies --     94.8146               158.2042               176.1007
 Red. masses --      3.2239                 2.5089                 3.2915
 Frc consts  --      0.0171                 0.0370                 0.0601
 IR Inten    --      0.5614                 0.0734                 0.4832

                      7                      8                      9
                      A                      A                      A
 Frequencies --    231.5722               242.9254               330.8853
 Red. masses --      1.2417                 1.4024                 2.5749
 Frc consts  --      0.0392                 0.0488                 0.1661
 IR Inten    --      1.6637                 0.0418                11.1102

                     10                     11                     12
                      A                      A                      A
 Frequencies --    385.8833               413.3439               453.0432
 Red. masses --      3.6930                 4.3108                 4.6445
 Frc consts  --      0.3240                 0.4339                 0.5616
 IR Inten    --      1.2869                 3.2049                 2.8033

                     13                     14                     15
                      A                      A                      A
 Frequencies --    523.3845               599.0465               770.8783
 Red. masses --      3.7413                 7.3640                 2.1746
 Frc consts  --      0.6038                 1.5570                 0.7614
 IR Inten    --      5.6061                 2.7642                 9.8169

                     16                     17                     18
                      A                      A                      A
 Frequencies --    776.0324               781.1056               834.2597
 Red. masses --      3.0020                 1.3481                 1.9899
 Frc consts  --      1.0652                 0.4846                 0.8160
 IR Inten    --      8.8317                 8.6077                 7.5486

                     19                     20                     21
                      A                      A                      A
 Frequencies --    874.2587               944.8213              1025.5092
 Red. masses --      2.9208                 2.4646                 3.2261
 Frc consts  --      1.3153                 1.2963                 1.9989
 IR Inten    --      4.2864                 1.8194                 2.9083

                     22                     23                     24
                      A                      A                      A
 Frequencies --   1075.7183              1100.5969              1102.2892
 Red. masses --      2.4959                 1.4925                 2.3466
 Frc consts  --      1.7017                 1.0652                 1.6799
 IR Inten    --     50.0380                 0.9185                63.2396

                     25                     26                     27
                      A                      A                      A
 Frequencies --   1119.3718              1198.3801              1271.0846
 Red. masses --      2.1528                 1.7987                 4.8963
 Frc consts  --      1.5893                 1.5220                 4.6608
 IR Inten    --     81.9903                14.5107               602.7138

                     28                     29                     30
                      A                      A                      A
 Frequencies --   1282.5452              1329.9694              1347.6248
 Red. masses --      1.1512                 1.1231                 1.5445
 Frc consts  --      1.1157                 1.1704                 1.6527
 IR Inten    --      0.0609                20.7946                49.3240

                     31                     32                     33
                      A                      A                      A
 Frequencies --   1399.5449              1411.6305              1419.4244
 Red. masses --      1.2571                 1.2083                 1.3484
 Frc consts  --      1.4508                 1.4186                 1.6006
 IR Inten    --     15.3472                 1.3409                 9.7008

                     34                     35                     36
                      A                      A                      A
 Frequencies --   1464.3879              1484.7456              1487.9795
 Red. masses --      1.0749                 1.0748                 1.0535
 Frc consts  --      1.3581                 1.3960                 1.3743
 IR Inten    --      2.8423                13.5942                 5.3226

                     37                     38                     39
                      A                      A                      A
 Frequencies --   1494.9920              1504.3040              1507.5980
 Red. masses --      1.0389                 1.0537                 1.0589
 Frc consts  --      1.3681                 1.4049                 1.4180
 IR Inten    --      5.0503                 2.1113                 6.6380

                     40                     41                     42
                      A                      A                      A
 Frequencies --   1782.0815              2353.5802              3024.0064
 Red. masses --     11.8410                11.9414                 1.0590
 Frc consts  --     22.1561                38.9728                 5.7059
 IR Inten    --    242.4771               150.0116                13.4099

                     43                     44                     45
                      A                      A                      A
 Frequencies --   3046.2645              3049.0949              3052.2610
 Red. masses --      1.0355                 1.0343                 1.1004
 Frc consts  --      5.6618                 5.6657                 6.0400
 IR Inten    --     16.6941                25.8762                 5.3848

                     46                     47                     48
                      A                      A                      A
 Frequencies --   3070.9816              3113.4913              3121.7350
 Red. masses --      1.0577                 1.1028                 1.1027
 Frc consts  --      5.8774                 6.2985                 6.3316
 IR Inten    --     28.1601                14.5409                13.6291

                     49                     50                     51
                      A                      A                      A
 Frequencies --   3123.7990              3129.5826              3142.7580
 Red. masses --      1.1024                 1.1031                 1.1056
 Frc consts  --      6.3378                 6.3654                 6.4340
 IR Inten    --     23.8206                19.2728                23.6800

 - Thermochemistry -
 -------------------
 Temperature   298.150 Kelvin.  Pressure   1.00000 Atm.
 Atom     1 has atomic number  6 and mass  12.00000

 Molecular mass:   126.06808 amu.
 Principal axes and moments of inertia in atomic units:
                           1         2         3
     Eigenvalues --   343.579333116.669683265.53248
           X            0.99998   0.00466  -0.00308
           Y           -0.00464   0.99997   0.00648
           Z            0.00311  -0.00647   0.99997
 This molecule is an asymmetric top.
 Rotational symmetry number  1.
 Rotational temperatures (Kelvin)      0.25209     0.02779     0.02652
 Rotational constants (GHZ):           5.25276     0.57906     0.55266
 Zero-point vibrational energy     411281.2 (Joules/Mol)
                                   98.29856 (Kcal/Mol)
 Warning -- explicit consideration of  14 degrees of freedom as
           vibrations may cause significant error
 Vibrational temperatures:      7.95    79.94   103.40   136.42   227.62
          (Kelvin)            253.37   333.18   349.52   476.07   555.20
                              594.71   651.83   753.03   861.89  1109.12
                             1116.54  1123.84  1200.31  1257.86  1359.39
                             1475.48  1547.72  1583.51  1585.95  1610.52
                             1724.20  1828.80  1845.29  1913.53  1938.93
                             2013.63  2031.02  2042.23  2106.92  2136.22
                             2140.87  2150.96  2164.36  2169.09  2564.01
                             3386.27  4350.87  4382.89  4386.96  4391.52
                             4418.45  4479.61  4491.47  4494.44  4502.77
                             4521.72

 Zero-point correction=                           0.156649 (Hartree/Particle)
 Thermal correction to Energy=                    0.167319
 Thermal correction to Enthalpy=                  0.168263
 Thermal correction to Gibbs Free Energy=         0.117487
 Sum of electronic and zero-point Energies=           -423.040491
 Sum of electronic and thermal Energies=              -423.029820
 Sum of electronic and thermal Enthalpies=            -423.028876
 Sum of electronic and thermal Free Energies=         -423.079653

                     E (Thermal)             CV                S
                      KCal/Mol        Cal/Mol-Kelvin    Cal/Mol-Kelvin
 Total                  104.994             36.027            106.868
 Electronic               0.000              0.000              0.000
 Translational            0.889              2.981             40.409
 Rotational               0.889              2.981             29.637
 Vibrational            103.217             30.066             36.822
 Vibration     1          0.593              1.987              9.190
 Vibration     2          0.596              1.975              4.609
 Vibration     3          0.598              1.967              4.102
 Vibration     4          0.603              1.953              3.558
 Vibration     5          0.621              1.893              2.571
 Vibration     6          0.628              1.872              2.369
 Vibration     7          0.653              1.793              1.867
 Vibration     8          0.659              1.774              1.781
 Vibration     9          0.713              1.614              1.256
 Vibration    10          0.755              1.500              1.016
 Vibration    11          0.777              1.441              0.915
 Vibration    12          0.812              1.354              0.787
 Vibration    13          0.878              1.198              0.602
 Vibration    14          0.957              1.034              0.451

 Normal termination of Gaussian 09 at Tue Jan 28 12:50:13 2020.
