 Gaussian 09, Revision D.01,
 Gaussian 09:  ES64L-G09RevD.01 24-Apr-2013

 -----------------------------
 # b3lyp 6-31G(2df,p) opt Freq
 -----------------------------

 -----
 titel
 -----
 Symbolic Z-matrix:
 Charge =  0 Multiplicity = 1

 SCF Done:  E(RB3LYP) =  -423.108727142     A.U. after   14 cycles
 SCF Done:  E(RB3LYP) =  -423.108727050     A.U. after    6 cycles
 SCF Done:  E(RB3LYP) =  -423.108727130     A.U. after    7 cycles
 SCF Done:  E(RB3LYP) =  -423.108726980     A.U. after    7 cycles
 SCF Done:  E(RB3LYP) =  -423.108727166     A.U. after    7 cycles
 Optimization completed.
    -- Stationary point found.
 Normal termination of Gaussian 09 at Tue Jan 28 09:01:35 2020.

 ----------------------------------------------------------------------
 #N Geom=AllCheck Guess=TCheck SCRF=Check GenChk RB3LYP/6-31G(2df,p) Fr
 eq
 ----------------------------------------------------------------------

 Structure from the checkpoint file:  "/scratch/puck/g09_36f6a6b0-c9c8-47cd-9b35-8d7eb069d9a8/Gau-59979.chk"
 -----
 titel
 -----
 Charge =  0 Multiplicity = 1

                         Standard orientation:
 ---------------------------------------------------------------------
 Center     Atomic      Atomic             Coordinates (Angstroms)
 Number     Number       Type             X           Y           Z
 ---------------------------------------------------------------------
      1          6           0        2.173933   -1.783743    0.216861
      2          8           0        0.985535   -1.235085   -0.315274
      3          6           0        0.625888    0.020487    0.245045
      4          6           0        1.615425    1.066684   -0.057638
      5          6           0        2.420904    1.920323   -0.317904
      6          6           0       -0.742520    0.376148   -0.291301
      7          6           0       -1.687566    1.241033    0.516170
      8          6           0       -1.971446   -0.218856    0.345305
      9          8           0       -3.064957   -0.552626   -0.454616
     10          1           0        2.094021   -1.940624    1.304221
     11          1           0        2.322082   -2.750296   -0.269969
     12          1           0        3.044311   -1.143812    0.020619
     13          1           0        0.561145   -0.078157    1.343989
     14          1           0        3.129600    2.678463   -0.544102
     15          1           0       -0.779631    0.502622   -1.368366
     16          1           0       -1.368475    1.595907    1.490299
     17          1           0       -2.316473    1.928295   -0.037134
     18          1           0       -1.815799   -0.863266    1.211515
     19          1           0       -2.843106   -1.359896   -0.931180
 ---------------------------------------------------------------------

 SCF Done:  E(RB3LYP) =  -423.108727166     A.U. after    1 cycles

 The electronic state is 1-A.
 Alpha  occ. eigenvalues --  -19.14582 -19.14191 -10.26082 -10.23574 -10.22406
 Alpha  occ. eigenvalues --  -10.19296 -10.18699 -10.18335 -10.17870  -1.03883
 Alpha  occ. eigenvalues --   -1.02734  -0.85627  -0.77154  -0.71950  -0.65638
 Alpha  occ. eigenvalues --   -0.59765  -0.59425  -0.54447  -0.52322  -0.49506
 Alpha  occ. eigenvalues --   -0.49230  -0.47995  -0.44211  -0.42000  -0.41270
 Alpha  occ. eigenvalues --   -0.38545  -0.36457  -0.33140  -0.33004  -0.28901
 Alpha  occ. eigenvalues --   -0.27979  -0.27183  -0.26615  -0.25269
 Alpha virt. eigenvalues --    0.03457   0.04813   0.08508   0.10152   0.11273
 Alpha virt. eigenvalues --    0.12204   0.12547   0.13370   0.15961   0.16173
 Alpha virt. eigenvalues --    0.16831   0.17739   0.18329   0.19985   0.23353

 Mulliken charges:
               1
     1  C   -0.238826
     2  O   -0.235810
     3  C   -0.087770
     4  C    0.350651
     5  C   -0.474863
     6  C   -0.047642
     7  C   -0.299402
     8  C    0.100251
     9  O   -0.425281
    10  H    0.102206
    11  H    0.127587
    12  H    0.121830
    13  H    0.085264
    14  H    0.199135
    15  H    0.104533
    16  H    0.115975
    17  H    0.126982
    18  H    0.085858
    19  H    0.289322
 Sum of Mulliken charges =   0.00000

 Dipole moment (field-independent basis, Debye):
    X=              1.3668    Y=             -0.4938    Z=              0.5894  Tot=              1.5682
 Quadrupole moment (field-independent basis, Debye-Ang):
   XX=            -55.4309   YY=            -48.3868   ZZ=            -51.9601
   XY=              2.2598   XZ=              0.7806   YZ=             -0.3714

  Exact polarizability:  91.144   7.583  84.099  -2.720  -1.599  60.869
 Approx polarizability: 120.808  19.251 122.152  -5.540  -2.943  93.996

                      1                      2                      3
                      A                      A                      A
 Frequencies --     54.2689                96.3827               105.6098
 Red. masses --      3.3868                 3.8760                 2.8410
 Frc consts  --      0.0059                 0.0212                 0.0187
 IR Inten    --      0.4614                 0.3395                 2.1528

                      4                      5                      6
                      A                      A                      A
 Frequencies --    149.5437               174.5844               242.9715
 Red. masses --      3.6325                 1.5057                 2.1303
 Frc consts  --      0.0479                 0.0270                 0.0741
 IR Inten    --      0.7459                 0.2307                 6.9071

                      7                      8                      9
                      A                      A                      A
 Frequencies --    292.9865               297.7469               342.0453
 Red. masses --      3.8382                 2.4853                 1.3592
 Frc consts  --      0.1941                 0.1298                 0.0937
 IR Inten    --      9.0699                18.4321                77.9236

                     10                     11                     12
                      A                      A                      A
 Frequencies --    376.4681               424.9247               467.1656
 Red. masses --      3.8177                 2.9829                 3.3807
 Frc consts  --      0.3188                 0.3173                 0.4347
 IR Inten    --     17.7240                 3.0703                 9.3722

                     13                     14                     15
                      A                      A                      A
 Frequencies --    545.2514               591.3819               630.3899
 Red. masses --      3.3584                 5.6989                 1.2285
 Frc consts  --      0.5883                 1.1743                 0.2876
 IR Inten    --      3.2228                 4.9732                41.3282

                     16                     17                     18
                      A                      A                      A
 Frequencies --    672.2587               835.5951               859.2294
 Red. masses --      1.2550                 1.8911                 1.5763
 Frc consts  --      0.3342                 0.7780                 0.6857
 IR Inten    --     33.5296                10.4561                10.4528

                     19                     20                     21
                      A                      A                      A
 Frequencies --    912.3312               929.3278               953.9646
 Red. masses --      3.4462                 2.8110                 3.5175
 Frc consts  --      1.6900                 1.4304                 1.8860
 IR Inten    --      6.3428                10.6315                27.3740

                     22                     23                     24
                      A                      A                      A
 Frequencies --   1021.8818              1055.3024              1091.1799
 Red. masses --      3.9986                 1.3716                 1.5856
 Frc consts  --      2.4602                 0.9000                 1.1124
 IR Inten    --     47.3344                11.6627                 7.0622

                     25                     26                     27
                      A                      A                      A
 Frequencies --   1108.6229              1129.0286              1163.7361
 Red. masses --      1.2720                 4.3915                 2.3373
 Frc consts  --      0.9211                 3.2982                 1.8650
 IR Inten    --      6.5139               134.5781                66.9727

                     28                     29                     30
                      A                      A                      A
 Frequencies --   1184.2863              1191.2533              1223.1147
 Red. masses --      1.3080                 2.1362                 1.6891
 Frc consts  --      1.0808                 1.7861                 1.4888
 IR Inten    --      3.1372                13.6360                55.9535

                     31                     32                     33
                      A                      A                      A
 Frequencies --   1229.7954              1277.9947              1306.3480
 Red. masses --      1.7551                 1.3100                 1.2257
 Frc consts  --      1.5639                 1.2606                 1.2324
 IR Inten    --      8.8036                 7.1747                86.5981

                     34                     35                     36
                      A                      A                      A
 Frequencies --   1351.0991              1380.0603              1440.6243
 Red. masses --      1.1842                 1.4574                 1.2772
 Frc consts  --      1.2736                 1.6355                 1.5617
 IR Inten    --     23.4961                13.2614                 3.5790

                     37                     38                     39
                      A                      A                      A
 Frequencies --   1477.3650              1484.7342              1496.5179
 Red. masses --      1.1457                 1.0494                 1.8129
 Frc consts  --      1.4733                 1.3630                 2.3922
 IR Inten    --      1.2961                 3.4275                21.9814

                     40                     41                     42
                      A                      A                      A
 Frequencies --   1511.6761              2229.0799              2934.9839
 Red. masses --      1.0578                 5.8943                 1.0801
 Frc consts  --      1.4242                17.2556                 5.4817
 IR Inten    --      8.2907                 1.6902                31.3650

                     43                     44                     45
                      A                      A                      A
 Frequencies --   2980.1953              3045.6350              3091.1454
 Red. masses --      1.0427                 1.0947                 1.0870
 Frc consts  --      5.4564                 5.9828                 6.1197
 IR Inten    --     59.9164                39.1083                31.5380

                     46                     47                     48
                      A                      A                      A
 Frequencies --   3120.2944              3139.9132              3170.4723
 Red. masses --      1.0983                 1.0556                 1.0885
 Frc consts  --      6.3004                 6.1316                 6.4463
 IR Inten    --     25.5738                 8.4772                 4.2700

                     49                     50                     51
                      A                      A                      A
 Frequencies --   3230.8675              3501.9423              3802.4264
 Red. masses --      1.1161                 1.1624                 1.0661
 Frc consts  --      6.8641                 8.3988                 9.0815
 IR Inten    --      4.8866                62.9085                22.7628

 - Thermochemistry -
 -------------------
 Temperature   298.150 Kelvin.  Pressure   1.00000 Atm.
 Atom     1 has atomic number  6 and mass  12.00000

 Molecular mass:   126.06808 amu.
 Principal axes and moments of inertia in atomic units:
                           1         2         3
     Eigenvalues --   708.930761744.804202286.53373
           X            0.99969  -0.02468   0.00201
           Y            0.02470   0.99964  -0.01027
           Z           -0.00175   0.01031   0.99995
 This molecule is an asymmetric top.
 Rotational symmetry number  1.
 Warning -- assumption of classical behavior for rotation
           may cause significant error
 Rotational temperatures (Kelvin)      0.12218     0.04964     0.03788
 Rotational constants (GHZ):           2.54572     1.03435     0.78929
 Zero-point vibrational energy     408680.3 (Joules/Mol)
                                   97.67693 (Kcal/Mol)
 Warning -- explicit consideration of  14 degrees of freedom as
           vibrations may cause significant error
 Vibrational temperatures:     78.08   138.67   151.95   215.16   251.19
          (Kelvin)            349.58   421.54   428.39   492.13   541.65
                              611.37   672.15   784.49   850.87   906.99
                              967.23  1202.23  1236.24  1312.64  1337.09
                             1372.54  1470.26  1518.34  1569.96  1595.06
                             1624.42  1674.35  1703.92  1713.95  1759.79
                             1769.40  1838.75  1879.54  1943.93  1985.60
                             2072.73  2125.60  2136.20  2153.15  2174.96
                             3207.14  4222.78  4287.83  4381.98  4447.46
                             4489.40  4517.63  4561.60  4648.49  5038.51
                             5470.84

 Zero-point correction=                           0.155658 (Hartree/Particle)
 Thermal correction to Energy=                    0.165804
 Thermal correction to Enthalpy=                  0.166748
 Thermal correction to Gibbs Free Energy=         0.120110
 Sum of electronic and zero-point Energies=           -422.953069
 Sum of electronic and thermal Energies=              -422.942923
 Sum of electronic and thermal Enthalpies=            -422.941979
 Sum of electronic and thermal Free Energies=         -422.988618

                     E (Thermal)             CV                S
                      KCal/Mol        Cal/Mol-Kelvin    Cal/Mol-Kelvin
 Total                  104.043             36.650             98.159
 Electronic               0.000              0.000              0.000
 Translational            0.889              2.981             40.409
 Rotational               0.889              2.981             29.427
 Vibrational            102.266             30.689             28.323
 Vibration     1          0.596              1.976              4.655
 Vibration     2          0.603              1.952              3.526
 Vibration     3          0.605              1.945              3.348
 Vibration     4          0.618              1.903              2.678
 Vibration     5          0.627              1.874              2.386
 Vibration     6          0.659              1.774              1.781
 Vibration     7          0.688              1.687              1.457
 Vibration     8          0.691              1.678              1.430
 Vibration     9          0.721              1.591              1.203
 Vibration    10          0.747              1.520              1.053
 Vibration    11          0.787              1.416              0.875
 Vibration    12          0.824              1.323              0.746
 Vibration    13          0.900              1.150              0.554
 Vibration    14          0.949              1.050              0.465

 Optimization completed.
    -- Stationary point found.
 Normal termination of Gaussian 09 at Tue Jan 28 10:38:55 2020.
