 Gaussian 09, Revision D.01,
 Gaussian 09:  ES64L-G09RevD.01 24-Apr-2013

 -----------------------------
 # b3lyp 6-31G(2df,p) opt Freq
 -----------------------------

 -----
 titel
 -----
 Symbolic Z-matrix:
 Charge =  0 Multiplicity = 1

 SCF Done:  E(RB3LYP) =  -423.171272486     A.U. after   14 cycles
 Optimization completed.
    -- Stationary point found.
 Normal termination of Gaussian 09 at Tue Jan 28 03:14:29 2020.

 ----------------------------------------------------------------------
 #N Geom=AllCheck Guess=TCheck SCRF=Check GenChk RB3LYP/6-31G(2df,p) Fr
 eq
 ----------------------------------------------------------------------

 Structure from the checkpoint file:  "/scratch/puck/g09_6422c36a-9704-425d-870f-0f5f432202e0/Gau-89036.chk"
 -----
 titel
 -----
 Charge =  0 Multiplicity = 1

                         Standard orientation:
 ---------------------------------------------------------------------
 Center     Atomic      Atomic             Coordinates (Angstroms)
 Number     Number       Type             X           Y           Z
 ---------------------------------------------------------------------
      1          6           0       -0.395342    2.230881   -0.185577
      2          6           0       -1.100222    0.885263   -0.162732
      3          8           0       -1.006629    0.237524    1.137785
      4          6           0       -0.593729   -1.095355    0.788120
      5          6           0       -1.419779   -1.430270   -0.473380
      6          6           0       -0.561912   -0.253879   -1.042556
      7          6           0        0.612231   -0.852901   -0.160820
      8          6           0        1.788722   -0.055642    0.331992
      9          8           0        2.874392   -0.071439   -0.197158
     10          1           0       -0.629194    2.756081   -1.117525
     11          1           0       -0.748273    2.846365    0.647316
     12          1           0        0.690782    2.146705   -0.108472
     13          1           0       -2.163567    1.051176   -0.385830
     14          1           0       -0.550230   -1.713666    1.683215
     15          1           0       -1.173090   -2.398265   -0.910613
     16          1           0       -2.501438   -1.288871   -0.414315
     17          1           0       -0.436723   -0.066931   -2.107725
     18          1           0        0.982465   -1.763551   -0.636393
     19          1           0        1.607351    0.533695    1.255034
 ---------------------------------------------------------------------

 SCF Done:  E(RB3LYP) =  -423.171272486     A.U. after    1 cycles

 The electronic state is 1-A.
 Alpha  occ. eigenvalues --  -19.14524 -19.13484 -10.26551 -10.24876 -10.24153
 Alpha  occ. eigenvalues --  -10.21605 -10.20243 -10.19824 -10.18349  -1.05079
 Alpha  occ. eigenvalues --   -1.03976  -0.84916  -0.77317  -0.71266  -0.67151
 Alpha  occ. eigenvalues --   -0.59961  -0.57253  -0.56511  -0.53469  -0.49041
 Alpha  occ. eigenvalues --   -0.46749  -0.44017  -0.42560  -0.41290  -0.40229
 Alpha  occ. eigenvalues --   -0.38901  -0.37746  -0.37086  -0.36193  -0.34612
 Alpha  occ. eigenvalues --   -0.33261  -0.31321  -0.26227  -0.23776
 Alpha virt. eigenvalues --   -0.02863   0.08683   0.09992   0.10371   0.12725
 Alpha virt. eigenvalues --    0.13242   0.13834   0.15092   0.15365   0.16367
 Alpha virt. eigenvalues --    0.16650   0.17687   0.19104   0.19755   0.20296

 Mulliken charges:
               1
     1  C   -0.429553
     2  C    0.156229
     3  O   -0.299660
     4  C    0.081472
     5  C   -0.243270
     6  C   -0.101088
     7  C   -0.072718
     8  C    0.115806
     9  O   -0.266736
    10  H    0.120254
    11  H    0.133968
    12  H    0.133685
    13  H    0.081498
    14  H    0.089017
    15  H    0.109315
    16  H    0.105328
    17  H    0.087478
    18  H    0.102270
    19  H    0.096707
 Sum of Mulliken charges =   0.00000

 Dipole moment (field-independent basis, Debye):
    X=             -2.5721    Y=             -0.6076    Z=             -0.7429  Tot=              2.7453
 Quadrupole moment (field-independent basis, Debye-Ang):
   XX=            -63.1963   YY=            -49.1655   ZZ=            -53.4596
   XY=             -0.0147   XZ=              3.9045   YZ=             -1.3247

  Exact polarizability:  83.500   0.754  78.382   0.579   0.690  66.014
 Approx polarizability: 125.268  -1.301 107.159  -4.293   1.228 105.974

                      1                      2                      3
                      A                      A                      A
 Frequencies --     72.5838               144.7413               195.9907
 Red. masses --      4.8685                 2.2407                 1.4758
 Frc consts  --      0.0151                 0.0277                 0.0334
 IR Inten    --      7.2973                 3.4731                 2.6292

                      4                      5                      6
                      A                      A                      A
 Frequencies --    239.2541               298.0242               309.6702
 Red. masses --      2.7788                 2.3961                 2.5793
 Frc consts  --      0.0937                 0.1254                 0.1457
 IR Inten    --      1.9745                 1.4175                 3.9216

                      7                      8                      9
                      A                      A                      A
 Frequencies --    414.7181               491.3978               529.6932
 Red. masses --      3.9852                 3.6073                 2.5336
 Frc consts  --      0.4038                 0.5132                 0.4188
 IR Inten    --      1.5564                 2.2244                10.6214

                     10                     11                     12
                      A                      A                      A
 Frequencies --    581.4268               679.5906               797.1376
 Red. masses --      4.2070                 3.3408                 2.9961
 Frc consts  --      0.8379                 0.9091                 1.1217
 IR Inten    --      4.1899                 3.4604                 3.5477

                     13                     14                     15
                      A                      A                      A
 Frequencies --    811.9451               842.0574               852.6119
 Red. masses --      2.2151                 2.8731                 2.1726
 Frc consts  --      0.8604                 1.2003                 0.9305
 IR Inten    --      0.9365                16.6472                 2.7275

                     16                     17                     18
                      A                      A                      A
 Frequencies --    889.2909               914.7189               969.5264
 Red. masses --      3.5069                 2.2680                 2.7119
 Frc consts  --      1.6340                 1.1180                 1.5019
 IR Inten    --      6.4157                 4.6621                46.0486

                     19                     20                     21
                      A                      A                      A
 Frequencies --   1001.1851              1025.3375              1033.8476
 Red. masses --      1.3490                 1.3144                 2.8649
 Frc consts  --      0.7967                 0.8142                 1.8042
 IR Inten    --     12.5321                 9.9724                 2.7747

                     22                     23                     24
                      A                      A                      A
 Frequencies --   1062.9825              1083.1432              1112.4273
 Red. masses --      1.8069                 1.8848                 1.9006
 Frc consts  --      1.2029                 1.3028                 1.3857
 IR Inten    --     19.9289                30.0764                11.2333

                     25                     26                     27
                      A                      A                      A
 Frequencies --   1118.5336              1141.4715              1154.3587
 Red. masses --      1.4330                 1.8541                 2.5681
 Frc consts  --      1.0563                 1.4234                 2.0162
 IR Inten    --      5.6056                 2.1700                35.2552

                     28                     29                     30
                      A                      A                      A
 Frequencies --   1183.1502              1227.8154              1237.5768
 Red. masses --      1.6770                 1.5716                 1.5593
 Frc consts  --      1.3831                 1.3959                 1.4071
 IR Inten    --      4.5980                 9.8795                 2.9760

                     31                     32                     33
                      A                      A                      A
 Frequencies --   1284.4648              1292.9108              1335.1132
 Red. masses --      1.3305                 1.6450                 1.3783
 Frc consts  --      1.2934                 1.6202                 1.4475
 IR Inten    --      3.5956                 3.9983                 0.1227

                     34                     35                     36
                      A                      A                      A
 Frequencies --   1340.3746              1405.9215              1416.5221
 Red. masses --      1.4705                 1.2787                 1.3374
 Frc consts  --      1.5566                 1.4892                 1.5811
 IR Inten    --      8.5232                 3.0257                19.2312

                     37                     38                     39
                      A                      A                      A
 Frequencies --   1426.2817              1488.7575              1492.8336
 Red. masses --      1.2671                 1.0615                 1.0549
 Frc consts  --      1.5187                 1.3861                 1.3851
 IR Inten    --      2.6285                 1.7375                 2.1794

                     40                     41                     42
                      A                      A                      A
 Frequencies --   1498.9900              1810.4756              2912.4975
 Red. masses --      1.1215                 9.9847                 1.0831
 Frc consts  --      1.4847                19.2828                 5.4131
 IR Inten    --      4.3720               184.4950                67.1913

                     43                     44                     45
                      A                      A                      A
 Frequencies --   2999.2955              3045.4002              3072.1022
 Red. masses --      1.0842                 1.0370                 1.0581
 Frc consts  --      5.7464                 5.6664                 5.8836
 IR Inten    --     39.1408                14.2309                29.3817

                     46                     47                     48
                      A                      A                      A
 Frequencies --   3096.7043              3111.3539              3131.8123
 Red. masses --      1.0849                 1.1004                 1.1003
 Frc consts  --      6.1295                 6.2762                 6.3584
 IR Inten    --      8.6870                12.5047                22.8384

                     49                     50                     51
                      A                      A                      A
 Frequencies --   3136.9455              3139.3995              3143.9530
 Red. masses --      1.0893                 1.0983                 1.1033
 Frc consts  --      6.3156                 6.3775                 6.4251
 IR Inten    --     51.8239                12.0583                24.0644

 - Thermochemistry -
 -------------------
 Temperature   298.150 Kelvin.  Pressure   1.00000 Atm.
 Atom     1 has atomic number  6 and mass  12.00000

 Molecular mass:   126.06808 amu.
 Principal axes and moments of inertia in atomic units:
                           1         2         3
     Eigenvalues --   760.276731130.756241470.21046
           X            0.99965   0.01340   0.02267
           Y           -0.01338   0.99991  -0.00116
           Z           -0.02268   0.00085   0.99974
 This molecule is an asymmetric top.
 Rotational symmetry number  1.
 Warning -- assumption of classical behavior for rotation
           may cause significant error
 Rotational temperatures (Kelvin)      0.11392     0.07660     0.05891
 Rotational constants (GHZ):           2.37380     1.59605     1.22754
 Zero-point vibrational energy     418682.9 (Joules/Mol)
                                  100.06762 (Kcal/Mol)
 Warning -- explicit consideration of  10 degrees of freedom as
           vibrations may cause significant error
 Vibrational temperatures:    104.43   208.25   281.99   344.23   428.79
          (Kelvin)            445.55   596.69   707.01   762.11   836.54
                              977.78  1146.90  1168.21  1211.53  1226.72
                             1279.49  1316.07  1394.93  1440.48  1475.23
                             1487.47  1529.39  1558.40  1600.53  1609.32
                             1642.32  1660.86  1702.29  1766.55  1780.59
                             1848.06  1860.21  1920.93  1928.50  2022.80
                             2038.06  2052.10  2141.99  2147.85  2156.71
                             2604.87  4190.43  4315.31  4381.65  4420.06
                             4455.46  4476.54  4505.97  4513.36  4516.89
                             4523.44

 Zero-point correction=                           0.159468 (Hartree/Particle)
 Thermal correction to Energy=                    0.167470
 Thermal correction to Enthalpy=                  0.168414
 Thermal correction to Gibbs Free Energy=         0.126753
 Sum of electronic and zero-point Energies=           -423.011805
 Sum of electronic and thermal Energies=              -423.003803
 Sum of electronic and thermal Enthalpies=            -423.002859
 Sum of electronic and thermal Free Energies=         -423.044520

                     E (Thermal)             CV                S
                      KCal/Mol        Cal/Mol-Kelvin    Cal/Mol-Kelvin
 Total                  105.089             30.876             87.683
 Electronic               0.000              0.000              0.000
 Translational            0.889              2.981             40.409
 Rotational               0.889              2.981             28.626
 Vibrational            103.311             24.914             18.648
 Vibration     1          0.599              1.967              4.082
 Vibration     2          0.616              1.908              2.740
 Vibration     3          0.636              1.845              2.170
 Vibration     4          0.657              1.780              1.808
 Vibration     5          0.691              1.677              1.428
 Vibration     6          0.699              1.655              1.364
 Vibration     7          0.778              1.438              0.910
 Vibration     8          0.847              1.269              0.680
 Vibration     9          0.885              1.184              0.588
 Vibration    10          0.938              1.071              0.483

 Optimization completed.
    -- Stationary point found.
 Normal termination of Gaussian 09 at Tue Jan 28 03:58:40 2020.
