 Gaussian 09, Revision D.01,
 Gaussian 09:  ES64L-G09RevD.01 24-Apr-2013

 -----------------------------
 # b3lyp 6-31G(2df,p) opt Freq
 -----------------------------

 -----
 titel
 -----
 Symbolic Z-matrix:
 Charge =  0 Multiplicity = 1

 SCF Done:  E(RB3LYP) =  -423.184022426     A.U. after   14 cycles
 Optimization completed.
    -- Stationary point found.
 Normal termination of Gaussian 09 at Tue Jan 28 03:52:06 2020.

 ----------------------------------------------------------------------
 #N Geom=AllCheck Guess=TCheck SCRF=Check GenChk RB3LYP/6-31G(2df,p) Fr
 eq
 ----------------------------------------------------------------------

 Structure from the checkpoint file:  "/scratch/puck/g09_c1ff7fdb-4402-44ff-9b60-2a4872077f3e/Gau-2885.chk"
 -----
 titel
 -----
 Charge =  0 Multiplicity = 1

                         Standard orientation:
 ---------------------------------------------------------------------
 Center     Atomic      Atomic             Coordinates (Angstroms)
 Number     Number       Type             X           Y           Z
 ---------------------------------------------------------------------
      1          6           0        2.568206   -0.250821   -0.201774
      2          6           0        1.119552   -0.332271   -0.644268
      3          8           0        0.435988   -1.494063   -0.103749
      4          6           0       -0.402009   -0.693782    0.760002
      5          6           0       -1.895962   -0.838834    0.445349
      6          6           0       -2.142340    0.268071   -0.556847
      7          6           0       -1.071102    1.036404   -0.761541
      8          6           0        0.110067    0.607226    0.067031
      9          8           0        0.723965    1.639122    0.798482
     10          1           0        2.648338   -0.220616    0.887230
     11          1           0        3.112683   -1.125193   -0.571601
     12          1           0        3.041147    0.650048   -0.604977
     13          1           0        1.049396   -0.325165   -1.739451
     14          1           0       -0.143263   -0.829161    1.815532
     15          1           0       -2.090557   -1.832269    0.024847
     16          1           0       -2.535036   -0.736798    1.332447
     17          1           0       -3.098467    0.395854   -1.054034
     18          1           0       -1.012527    1.878420   -1.443379
     19          1           0        0.030190    2.208440    1.147817
 ---------------------------------------------------------------------

 SCF Done:  E(RB3LYP) =  -423.184022426     A.U. after    1 cycles

 The electronic state is 1-A.
 Alpha  occ. eigenvalues --  -19.14560 -19.12582 -10.23707 -10.22605 -10.22343
 Alpha  occ. eigenvalues --  -10.19350 -10.18690 -10.18350 -10.16689  -1.04320
 Alpha  occ. eigenvalues --   -1.01626  -0.82814  -0.75277  -0.70368  -0.68894
 Alpha  occ. eigenvalues --   -0.61235  -0.56165  -0.54405  -0.51675  -0.48188
 Alpha  occ. eigenvalues --   -0.47013  -0.44678  -0.41197  -0.40756  -0.38606
 Alpha  occ. eigenvalues --   -0.37851  -0.37750  -0.36568  -0.34942  -0.33479
 Alpha  occ. eigenvalues --   -0.30282  -0.26563  -0.24898  -0.24468
 Alpha virt. eigenvalues --    0.00549   0.08423   0.09760   0.11129   0.12866
 Alpha virt. eigenvalues --    0.13553   0.14363   0.16211   0.16348   0.17094
 Alpha virt. eigenvalues --    0.17497   0.18022   0.20152   0.21716   0.22664

 Mulliken charges:
               1
     1  C   -0.398742
     2  C    0.115495
     3  O   -0.316248
     4  C    0.062863
     5  C   -0.289792
     6  C   -0.056224
     7  C   -0.177868
     8  C    0.313969
     9  O   -0.477425
    10  H    0.127141
    11  H    0.118654
    12  H    0.119992
    13  H    0.074640
    14  H    0.074446
    15  H    0.127462
    16  H    0.103324
    17  H    0.100718
    18  H    0.098721
    19  H    0.278872
 Sum of Mulliken charges =   0.00000

 Dipole moment (field-independent basis, Debye):
    X=             -1.6675    Y=              1.4608    Z=              0.1684  Tot=              2.2233
 Quadrupole moment (field-independent basis, Debye-Ang):
   XX=            -50.8707   YY=            -54.5384   ZZ=            -51.1221
   XY=             -1.0545   XZ=             -1.7872   YZ=             -0.4529

  Exact polarizability:  92.407   4.811  71.046  -1.770  -4.279  66.150
 Approx polarizability: 126.060  13.431 111.229  -4.282  -5.060 100.223

                      1                      2                      3
                      A                      A                      A
 Frequencies --     99.3814               194.5911               206.1322
 Red. masses --      3.4102                 2.9418                 1.1039
 Frc consts  --      0.0198                 0.0656                 0.0276
 IR Inten    --      1.4239                 0.4815                 0.6261

                      4                      5                      6
                      A                      A                      A
 Frequencies --    251.1376               261.2307               291.4232
 Red. masses --      2.8386                 2.7871                 1.1190
 Frc consts  --      0.1055                 0.1121                 0.0560
 IR Inten    --      1.6834                 8.3336                67.2295

                      7                      8                      9
                      A                      A                      A
 Frequencies --    374.5101               432.6043               450.5040
 Red. masses --      3.8337                 3.3441                 2.3846
 Frc consts  --      0.3168                 0.3687                 0.2851
 IR Inten    --     16.7622                 2.8806                 2.1318

                     10                     11                     12
                      A                      A                      A
 Frequencies --    502.3375               648.6677               688.8860
 Red. masses --      2.9849                 5.0894                 3.5489
 Frc consts  --      0.4438                 1.2617                 0.9923
 IR Inten    --      2.8291                 7.3595                 3.1051

                     13                     14                     15
                      A                      A                      A
 Frequencies --    745.5757               764.9139               838.4448
 Red. masses --      1.8268                 2.6752                 2.7181
 Frc consts  --      0.5983                 0.9222                 1.1258
 IR Inten    --     10.2076                10.1211                 1.4983

                     16                     17                     18
                      A                      A                      A
 Frequencies --    866.3290               889.5809               932.6998
 Red. masses --      2.4204                 2.8559                 2.2693
 Frc consts  --      1.0703                 1.3316                 1.1631
 IR Inten    --     11.6463                16.6049                 6.6481

                     19                     20                     21
                      A                      A                      A
 Frequencies --    974.7822               979.3603              1014.9276
 Red. masses --      1.5737                 1.7038                 1.8560
 Frc consts  --      0.8810                 0.9628                 1.1264
 IR Inten    --     22.5207                33.3132                 5.8329

                     22                     23                     24
                      A                      A                      A
 Frequencies --   1036.0840              1055.0981              1080.0815
 Red. masses --      1.8284                 2.9515                 1.7940
 Frc consts  --      1.1564                 1.9359                 1.2331
 IR Inten    --      1.9754                52.0834                 9.9006

                     25                     26                     27
                      A                      A                      A
 Frequencies --   1103.5814              1127.6934              1164.8212
 Red. masses --      1.5845                 2.3624                 1.8073
 Frc consts  --      1.1370                 1.7701                 1.4448
 IR Inten    --     37.3253                45.7446                11.1280

                     28                     29                     30
                      A                      A                      A
 Frequencies --   1174.0656              1191.3549              1263.9593
 Red. masses --      2.0098                 1.7364                 2.2044
 Frc consts  --      1.6322                 1.4520                 2.0749
 IR Inten    --     12.6160                57.8651                42.8716

                     31                     32                     33
                      A                      A                      A
 Frequencies --   1285.1139              1317.7011              1329.7688
 Red. masses --      1.3865                 1.6243                 1.2587
 Frc consts  --      1.3492                 1.6617                 1.3114
 IR Inten    --      0.4018                16.8839                22.4815

                     34                     35                     36
                      A                      A                      A
 Frequencies --   1355.8802              1386.7013              1397.3531
 Red. masses --      1.4428                 1.7138                 1.5727
 Frc consts  --      1.5628                 1.9417                 1.8092
 IR Inten    --      4.0692                19.1664                12.9419

                     37                     38                     39
                      A                      A                      A
 Frequencies --   1405.7015              1462.6251              1484.4896
 Red. masses --      1.3913                 1.0951                 1.0583
 Frc consts  --      1.6198                 1.3803                 1.3741
 IR Inten    --      4.3786                 4.8800                 3.4795

                     40                     41                     42
                      A                      A                      A
 Frequencies --   1487.4628              1672.9845              3019.5416
 Red. masses --      1.0572                 6.4427                 1.0659
 Frc consts  --      1.3782                10.6243                 5.7262
 IR Inten    --      3.1399                 4.7750                22.6922

                     43                     44                     45
                      A                      A                      A
 Frequencies --   3021.4880              3043.0680              3051.5295
 Red. masses --      1.0843                 1.0367                 1.0852
 Frc consts  --      5.8324                 5.6560                 5.9538
 IR Inten    --     51.0450                20.2214                41.7985

                     46                     47                     48
                      A                      A                      A
 Frequencies --   3066.6916              3112.8841              3131.2267
 Red. masses --      1.0970                 1.1014                 1.1015
 Frc consts  --      6.0786                 6.2881                 6.3627
 IR Inten    --     13.9662                16.8126                21.5024

                     49                     50                     51
                      A                      A                      A
 Frequencies --   3176.5265              3201.0916              3809.6318
 Red. masses --      1.0844                 1.1036                 1.0661
 Frc consts  --      6.4468                 6.6629                 9.1166
 IR Inten    --      5.9046                18.8978                20.0985

 - Thermochemistry -
 -------------------
 Temperature   298.150 Kelvin.  Pressure   1.00000 Atm.
 Atom     1 has atomic number  6 and mass  12.00000

 Molecular mass:   126.06808 amu.
 Principal axes and moments of inertia in atomic units:
                           1         2         3
     Eigenvalues --   636.828581137.563871417.37535
           X            0.99996   0.00172  -0.00922
           Y           -0.00201   0.99950  -0.03170
           Z            0.00916   0.03171   0.99946
 This molecule is an asymmetric top.
 Rotational symmetry number  1.
 Warning -- assumption of classical behavior for rotation
           may cause significant error
 Rotational temperatures (Kelvin)      0.13601     0.07614     0.06111
 Rotational constants (GHZ):           2.83395     1.58650     1.27330
 Zero-point vibrational energy     417641.6 (Joules/Mol)
                                   99.81873 (Kcal/Mol)
 Warning -- explicit consideration of  10 degrees of freedom as
           vibrations may cause significant error
 Vibrational temperatures:    142.99   279.97   296.58   361.33   375.85
          (Kelvin)            419.29   538.84   622.42   648.17   722.75
                              933.29   991.15  1072.72  1100.54  1206.33
                             1246.45  1279.91  1341.95  1402.49  1409.08
                             1460.25  1490.69  1518.05  1553.99  1587.81
                             1622.50  1675.92  1689.22  1714.09  1818.55
                             1848.99  1895.88  1913.24  1950.81  1995.15
                             2010.48  2022.49  2104.39  2135.85  2140.12
                             2407.05  4344.44  4347.24  4378.29  4390.46
                             4412.28  4478.74  4505.13  4570.31  4605.65
                             5481.20

 Zero-point correction=                           0.159071 (Hartree/Particle)
 Thermal correction to Energy=                    0.167318
 Thermal correction to Enthalpy=                  0.168262
 Thermal correction to Gibbs Free Energy=         0.126665
 Sum of electronic and zero-point Energies=           -423.024951
 Sum of electronic and thermal Energies=              -423.016704
 Sum of electronic and thermal Enthalpies=            -423.015760
 Sum of electronic and thermal Free Energies=         -423.057358

                     E (Thermal)             CV                S
                      KCal/Mol        Cal/Mol-Kelvin    Cal/Mol-Kelvin
 Total                  104.994             32.302             87.550
 Electronic               0.000              0.000              0.000
 Translational            0.889              2.981             40.409
 Rotational               0.889              2.981             28.420
 Vibrational            103.216             26.340             18.722
 Vibration     1          0.604              1.950              3.466
 Vibration     2          0.635              1.847              2.184
 Vibration     3          0.641              1.831              2.078
 Vibration     4          0.663              1.761              1.723
 Vibration     5          0.669              1.744              1.654
 Vibration     6          0.687              1.690              1.466
 Vibration     7          0.746              1.524              1.061
 Vibration     8          0.793              1.399              0.850
 Vibration     9          0.809              1.360              0.794
 Vibration    10          0.858              1.245              0.652

 Normal termination of Gaussian 09 at Tue Jan 28 04:35:24 2020.
