 Gaussian 09, Revision D.01,
 Gaussian 09:  ES64L-G09RevD.01 24-Apr-2013

 -----------------------------
 # b3lyp 6-31G(2df,p) opt Freq
 -----------------------------

 -----
 titel
 -----
 Symbolic Z-matrix:
 Charge =  0 Multiplicity = 1

 SCF Done:  E(RB3LYP) =  -423.192458956     A.U. after   12 cycles
 Optimization completed.
    -- Stationary point found.
 Normal termination of Gaussian 09 at Mon Jan 27 18:12:29 2020.

 ----------------------------------------------------------------------
 #N Geom=AllCheck Guess=TCheck SCRF=Check GenChk RB3LYP/6-31G(2df,p) Fr
 eq
 ----------------------------------------------------------------------

 Structure from the checkpoint file:  "/scratch/puck/g09_66b3f3e4-9463-4954-97b9-935cd3e03d25/Gau-35181.chk"
 -----
 titel
 -----
 Charge =  0 Multiplicity = 1

                         Standard orientation:
 ---------------------------------------------------------------------
 Center     Atomic      Atomic             Coordinates (Angstroms)
 Number     Number       Type             X           Y           Z
 ---------------------------------------------------------------------
      1          6           0       -2.321960   -0.416293   -0.000006
      2          6           0       -0.814061   -0.317033   -0.000009
      3          6           0        0.049791   -1.573454   -0.000011
      4          6           0        1.339391   -0.749953    0.000005
      5          8           0        1.214488    0.058308    1.163266
      6          6           0       -0.103879    0.624054    1.052112
      7          6           0       -0.082190    1.756624    0.000005
      8          6           0       -0.103857    0.624067   -1.052116
      9          8           0        1.214510    0.058322   -1.163247
     10          1           0       -2.679343   -0.954815   -0.884467
     11          1           0       -2.679404   -0.953799    0.885049
     12          1           0       -2.796160    0.570913   -0.000589
     13          1           0       -0.061464   -2.184473    0.898678
     14          1           0       -0.061461   -2.184439   -0.898724
     15          1           0        2.310685   -1.240728    0.000012
     16          1           0       -0.512874    0.785363    2.051232
     17          1           0       -1.006696    2.341114    0.000005
     18          1           0        0.788154    2.414371    0.000013
     19          1           0       -0.512829    0.785385   -2.051244
 ---------------------------------------------------------------------

 SCF Done:  E(RB3LYP) =  -423.192458956     A.U. after    1 cycles

 The electronic state is 1-A.
 Alpha  occ. eigenvalues --  -19.13927 -19.13927 -10.27270 -10.23271 -10.23271
 Alpha  occ. eigenvalues --  -10.19998 -10.18770 -10.18155 -10.17855  -1.08257
 Alpha  occ. eigenvalues --   -0.99503  -0.83974  -0.77388  -0.71051  -0.65029
 Alpha  occ. eigenvalues --   -0.64146  -0.59427  -0.53138  -0.49938  -0.49371
 Alpha  occ. eigenvalues --   -0.46818  -0.43727  -0.43095  -0.41125  -0.40684
 Alpha  occ. eigenvalues --   -0.39641  -0.37495  -0.36368  -0.35294  -0.33781
 Alpha  occ. eigenvalues --   -0.31739  -0.28482  -0.25629  -0.24664
 Alpha virt. eigenvalues --    0.08657   0.10369   0.11527   0.12187   0.13321
 Alpha virt. eigenvalues --    0.13920   0.15053   0.15081   0.15854   0.17276
 Alpha virt. eigenvalues --    0.18037   0.18762   0.20252   0.20363   0.20895

 Mulliken charges:
               1
     1  C   -0.505805
     2  C    0.277625
     3  C   -0.297412
     4  C    0.180213
     5  O   -0.279446
     6  C    0.062593
     7  C   -0.249422
     8  C    0.062580
     9  O   -0.279443
    10  H    0.123362
    11  H    0.123361
    12  H    0.120039
    13  H    0.106745
    14  H    0.106744
    15  H    0.091484
    16  H    0.073968
    17  H    0.099054
    18  H    0.109789
    19  H    0.073970
 Sum of Mulliken charges =   0.00000

 Dipole moment (field-independent basis, Debye):
    X=             -2.1709    Y=             -0.5298    Z=              0.0000  Tot=              2.2346
 Quadrupole moment (field-independent basis, Debye-Ang):
   XX=            -53.9906   YY=            -50.6144   ZZ=            -55.2422
   XY=             -2.0739   XZ=              0.0000   YZ=              0.0000

  Exact polarizability:  75.640  -2.451  76.049   0.000   0.000  67.055
 Approx polarizability: 108.141  -4.305 107.564   0.000   0.000 106.232

                      1                      2                      3
                      A                      A                      A
 Frequencies --    217.4199               238.6136               268.9741
 Red. masses --      1.0219                 2.8455                 2.4778
 Frc consts  --      0.0285                 0.0955                 0.1056
 IR Inten    --      0.0084                 0.4996                 0.1339

                      4                      5                      6
                      A                      A                      A
 Frequencies --    385.8883               396.8668               464.0707
 Red. masses --      3.2580                 2.0020                 2.0618
 Frc consts  --      0.2858                 0.1858                 0.2616
 IR Inten    --      2.1516                 2.5478                 0.5058

                      7                      8                      9
                      A                      A                      A
 Frequencies --    541.1135               590.4404               596.7750
 Red. masses --      5.3258                 4.7856                 3.7994
 Frc consts  --      0.9188                 0.9830                 0.7972
 IR Inten    --      6.6489                 0.0068                 5.3221

                     10                     11                     12
                      A                      A                      A
 Frequencies --    665.4936               795.3191               836.7964
 Red. masses --      4.0041                 3.3863                 2.5629
 Frc consts  --      1.0448                 1.2620                 1.0573
 IR Inten    --      6.8768                 4.9415                 2.9170

                     13                     14                     15
                      A                      A                      A
 Frequencies --    850.6680               859.6601               910.4387
 Red. masses --      5.0504                 2.4619                 3.4246
 Frc consts  --      2.1532                 1.0720                 1.6725
 IR Inten    --      8.2570                16.8829                55.1857

                     16                     17                     18
                      A                      A                      A
 Frequencies --    915.2697               940.6177               946.0902
 Red. masses --      1.9308                 2.0940                 2.3594
 Frc consts  --      0.9530                 1.0916                 1.2443
 IR Inten    --      4.9712                 6.0608                 1.9778

                     19                     20                     21
                      A                      A                      A
 Frequencies --    971.0363               986.0044              1005.4904
 Red. masses --      1.7880                 3.1013                 1.5901
 Frc consts  --      0.9933                 1.7764                 0.9472
 IR Inten    --     27.0818                 6.5365                 4.4460

                     22                     23                     24
                      A                      A                      A
 Frequencies --   1069.1185              1088.2992              1098.1025
 Red. masses --      3.4989                 4.2873                 1.3331
 Frc consts  --      2.3563                 2.9918                 0.9471
 IR Inten    --     36.5087                81.3065                12.5280

                     25                     26                     27
                      A                      A                      A
 Frequencies --   1129.0134              1163.2247              1175.9435
 Red. masses --      1.3642                 1.4915                 2.4937
 Frc consts  --      1.0245                 1.1891                 2.0318
 IR Inten    --      0.0810                 0.5980                32.0516

                     28                     29                     30
                      A                      A                      A
 Frequencies --   1211.4379              1236.5512              1259.9397
 Red. masses --      1.5988                 1.8613                 1.7108
 Frc consts  --      1.3824                 1.6768                 1.6001
 IR Inten    --      0.0000                 2.1859                12.5411

                     31                     32                     33
                      A                      A                      A
 Frequencies --   1260.1648              1296.0012              1297.1592
 Red. masses --      2.3193                 1.1681                 1.5220
 Frc consts  --      2.1700                 1.1560                 1.5089
 IR Inten    --      8.1854                 3.1109                12.7513

                     34                     35                     36
                      A                      A                      A
 Frequencies --   1322.5284              1367.1989              1370.1897
 Red. masses --      2.1423                 1.3445                 1.6994
 Frc consts  --      2.2077                 1.4807                 1.8797
 IR Inten    --     10.4542                15.7196                 3.7942

                     37                     38                     39
                      A                      A                      A
 Frequencies --   1418.1632              1462.0453              1476.1799
 Red. masses --      1.2855                 1.1221                 1.1378
 Frc consts  --      1.5232                 1.4132                 1.4608
 IR Inten    --      0.7059                 3.8450                 2.7252

                     40                     41                     42
                      A                      A                      A
 Frequencies --   1495.9506              1496.4372              3027.8513
 Red. masses --      1.0475                 1.0494                 1.0354
 Frc consts  --      1.3812                 1.3846                 5.5927
 IR Inten    --      4.5715                 5.1269                27.4937

                     43                     44                     45
                      A                      A                      A
 Frequencies --   3061.0748              3069.7707              3091.3535
 Red. masses --      1.0601                 1.0576                 1.0908
 Frc consts  --      5.8528                 5.8718                 6.1416
 IR Inten    --     14.8075                19.2717                48.5704

                     46                     47                     48
                      A                      A                      A
 Frequencies --   3093.5950              3093.8410              3096.2211
 Red. masses --      1.0979                 1.0996                 1.0930
 Frc consts  --      6.1907                 6.2014                 6.1734
 IR Inten    --     13.1439                50.5666                34.3094

                     49                     50                     51
                      A                      A                      A
 Frequencies --   3129.6708              3132.9713              3153.2862
 Red. masses --      1.1087                 1.1066                 1.0924
 Frc consts  --      6.3982                 6.3998                 6.4000
 IR Inten    --     15.4369                17.8573                32.6428

 - Thermochemistry -
 -------------------
 Temperature   298.150 Kelvin.  Pressure   1.00000 Atm.
 Atom     1 has atomic number  6 and mass  12.00000

 Molecular mass:   126.06808 amu.
 Principal axes and moments of inertia in atomic units:
                           1         2         3
     Eigenvalues --   691.86016 902.719321012.20293
           X            0.99999  -0.00512   0.00000
           Y            0.00512   0.99999   0.00000
           Z            0.00000   0.00000   1.00000
 This molecule is an asymmetric top.
 Rotational symmetry number  1.
 Warning -- assumption of classical behavior for rotation
           may cause significant error
 Rotational temperatures (Kelvin)      0.12519     0.09595     0.08557
 Rotational constants (GHZ):           2.60853     1.99923     1.78298
 Zero-point vibrational energy     424831.8 (Joules/Mol)
                                  101.53724 (Kcal/Mol)
 Warning -- explicit consideration of   9 degrees of freedom as
           vibrations may cause significant error
 Vibrational temperatures:    312.82   343.31   386.99   555.21   571.00
          (Kelvin)            667.69   778.54   849.51   858.63   957.50
                             1144.29  1203.96  1223.92  1236.86  1309.92
                             1316.87  1353.34  1361.21  1397.10  1418.64
                             1446.67  1538.22  1565.82  1579.92  1624.40
                             1673.62  1691.92  1742.99  1779.12  1812.77
                             1813.09  1864.65  1866.32  1902.82  1967.09
                             1971.39  2040.42  2103.55  2123.89  2152.34
                             2153.04  4356.40  4404.20  4416.71  4447.76
                             4450.99  4451.34  4454.77  4502.89  4507.64
                             4536.87

 Zero-point correction=                           0.161810 (Hartree/Particle)
 Thermal correction to Energy=                    0.168538
 Thermal correction to Enthalpy=                  0.169482
 Thermal correction to Gibbs Free Energy=         0.131225
 Sum of electronic and zero-point Energies=           -423.030649
 Sum of electronic and thermal Energies=              -423.023921
 Sum of electronic and thermal Enthalpies=            -423.022977
 Sum of electronic and thermal Free Energies=         -423.061234

                     E (Thermal)             CV                S
                      KCal/Mol        Cal/Mol-Kelvin    Cal/Mol-Kelvin
 Total                  105.759             28.542             80.518
 Electronic               0.000              0.000              0.000
 Translational            0.889              2.981             40.409
 Rotational               0.889              2.981             27.938
 Vibrational            103.982             22.581             12.172
 Vibration     1          0.646              1.815              1.980
 Vibration     2          0.657              1.781              1.813
 Vibration     3          0.673              1.730              1.603
 Vibration     4          0.755              1.500              1.016
 Vibration     5          0.763              1.477              0.974
 Vibration     6          0.822              1.330              0.754
 Vibration     7          0.896              1.159              0.563
 Vibration     8          0.948              1.052              0.466
 Vibration     9          0.955              1.039              0.455

 Normal termination of Gaussian 09 at Mon Jan 27 19:04:19 2020.
