 Gaussian 09, Revision D.01,
 Gaussian 09:  ES64L-G09RevD.01 24-Apr-2013

 -----------------------------
 # b3lyp 6-31G(2df,p) opt Freq
 -----------------------------

 -----
 titel
 -----
 Symbolic Z-matrix:
 Charge =  0 Multiplicity = 1

 SCF Done:  E(RB3LYP) =  -423.107434933     A.U. after   13 cycles
 Optimization completed.
    -- Stationary point found.
 Normal termination of Gaussian 09 at Tue Jan 28 09:13:02 2020.

 ----------------------------------------------------------------------
 #N Geom=AllCheck Guess=TCheck SCRF=Check GenChk RB3LYP/6-31G(2df,p) Fr
 eq
 ----------------------------------------------------------------------

 Structure from the checkpoint file:  "/scratch/puck/g09_2267edb7-1600-4fc8-9400-ef0036974664/Gau-130843.chk"
 -----
 titel
 -----
 Charge =  0 Multiplicity = 1

                         Standard orientation:
 ---------------------------------------------------------------------
 Center     Atomic      Atomic             Coordinates (Angstroms)
 Number     Number       Type             X           Y           Z
 ---------------------------------------------------------------------
      1          6           0        1.324552    2.051891    0.154358
      2          6           0        1.030192    0.704311   -0.493167
      3          6           0        1.568914   -0.517822    0.304492
      4          8           0        1.224628   -1.655827   -0.532551
      5          6           0       -0.131778   -1.398632   -0.164421
      6          6           0        0.188927   -0.611155    1.060090
      7          6           0       -0.352954    0.125526   -0.166395
      8          6           0       -1.695301    0.753808   -0.365267
      9          8           0       -2.667950   -0.110126    0.211403
     10          1           0        0.761139    2.858836   -0.326025
     11          1           0        1.060336    2.047729    1.217730
     12          1           0        2.388334    2.299519    0.070668
     13          1           0        1.323500    0.701456   -1.550304
     14          1           0        2.577841   -0.557034    0.712436
     15          1           0       -0.897092   -2.130769   -0.378672
     16          1           0       -0.125494   -0.676474    2.091901
     17          1           0       -1.723216    1.749853    0.107056
     18          1           0       -1.879400    0.899467   -1.443264
     19          1           0       -3.534668    0.287490    0.089516
 ---------------------------------------------------------------------

 SCF Done:  E(RB3LYP) =  -423.107434933     A.U. after    1 cycles

 The electronic state is 1-A.
 Alpha  occ. eigenvalues --  -19.14183 -19.12818 -10.23711 -10.23502 -10.22962
 Alpha  occ. eigenvalues --  -10.19375 -10.18985 -10.18654 -10.17841  -1.05428
 Alpha  occ. eigenvalues --   -1.02168  -0.85768  -0.75644  -0.71059  -0.66931
 Alpha  occ. eigenvalues --   -0.61729  -0.54375  -0.52651  -0.51935  -0.49773
 Alpha  occ. eigenvalues --   -0.47500  -0.44783  -0.43467  -0.40797  -0.40334
 Alpha  occ. eigenvalues --   -0.38866  -0.36825  -0.35280  -0.34064  -0.31328
 Alpha  occ. eigenvalues --   -0.28780  -0.27877  -0.25143  -0.22165
 Alpha virt. eigenvalues --    0.06293   0.08149   0.10130   0.11904   0.13133
 Alpha virt. eigenvalues --    0.14231   0.14939   0.15386   0.15900   0.16568
 Alpha virt. eigenvalues --    0.17059   0.18201   0.19580   0.20873   0.22106

 Mulliken charges:
               1
     1  C   -0.413004
     2  C   -0.075286
     3  C    0.063836
     4  O   -0.301289
     5  C    0.044096
     6  C   -0.190669
     7  C    0.318946
     8  C   -0.220412
     9  O   -0.421770
    10  H    0.116293
    11  H    0.117587
    12  H    0.115709
    13  H    0.070302
    14  H    0.081827
    15  H    0.118723
    16  H    0.100430
    17  H    0.090408
    18  H    0.092631
    19  H    0.291643
 Sum of Mulliken charges =   0.00000

 Dipole moment (field-independent basis, Debye):
    X=             -1.4450    Y=              2.3807    Z=              0.3755  Tot=              2.8101
 Quadrupole moment (field-independent basis, Debye-Ang):
   XX=            -46.8155   YY=            -55.3489   ZZ=            -53.1958
   XY=              0.0294   XZ=              3.0744   YZ=             -1.6330

  Exact polarizability:  82.624   1.521  76.246   1.491  -1.827  64.498
 Approx polarizability: 113.051  -0.372 110.455   1.216  -0.920 103.546

                      1                      2                      3
                      A                      A                      A
 Frequencies --     86.4791               156.2622               197.1729
 Red. masses --      3.8895                 3.6144                 1.6734
 Frc consts  --      0.0171                 0.0520                 0.0383
 IR Inten    --      5.9309                 2.5222                24.6325

                      4                      5                      6
                      A                      A                      A
 Frequencies --    225.4886               237.8318               253.6435
 Red. masses --      1.5219                 1.2680                 2.0078
 Frc consts  --      0.0456                 0.0423                 0.0761
 IR Inten    --     41.7963                 0.8150                26.5015

                      7                      8                      9
                      A                      A                      A
 Frequencies --    299.0762               448.1366               512.6209
 Red. masses --      2.4588                 4.2901                 4.5282
 Frc consts  --      0.1296                 0.5076                 0.7011
 IR Inten    --      9.3904                 7.0457                 2.0754

                     10                     11                     12
                      A                      A                      A
 Frequencies --    556.9517               636.0764               756.5194
 Red. masses --      3.6027                 2.8923                 2.6621
 Frc consts  --      0.6584                 0.6895                 0.8977
 IR Inten    --      6.6639                18.1038                 3.9947

                     13                     14                     15
                      A                      A                      A
 Frequencies --    769.1319               795.4333               837.3866
 Red. masses --      2.6302                 2.4205                 1.4745
 Frc consts  --      0.9167                 0.9023                 0.6092
 IR Inten    --      0.8468                13.9640                 3.8292

                     16                     17                     18
                      A                      A                      A
 Frequencies --    878.3186               911.5608               947.3993
 Red. masses --      2.1666                 2.4006                 2.2584
 Frc consts  --      0.9848                 1.1753                 1.1943
 IR Inten    --      9.2614                15.5830                21.7860

                     19                     20                     21
                      A                      A                      A
 Frequencies --    960.8092               981.9380              1039.5481
 Red. masses --      2.9349                 3.1586                 1.5587
 Frc consts  --      1.5963                 1.7944                 0.9925
 IR Inten    --     12.9015                46.1233                 1.4206

                     22                     23                     24
                      A                      A                      A
 Frequencies --   1061.3248              1064.7420              1076.2536
 Red. masses --      2.7582                 2.2027                 1.8675
 Frc consts  --      1.8305                 1.4713                 1.2745
 IR Inten    --     42.9758                10.8381                 6.2759

                     25                     26                     27
                      A                      A                      A
 Frequencies --   1089.9536              1127.8018              1142.0227
 Red. masses --      2.2895                 2.3548                 1.8599
 Frc consts  --      1.6026                 1.7647                 1.4292
 IR Inten    --      2.2327                 2.2013                 4.1668

                     28                     29                     30
                      A                      A                      A
 Frequencies --   1167.9080              1184.6959              1228.6408
 Red. masses --      2.0934                 1.3777                 1.2812
 Frc consts  --      1.6823                 1.1393                 1.1395
 IR Inten    --      4.1184                14.2559                28.8436

                     31                     32                     33
                      A                      A                      A
 Frequencies --   1234.3637              1258.2018              1281.1811
 Red. masses --      1.6984                 1.1766                 1.5559
 Frc consts  --      1.5246                 1.0974                 1.5047
 IR Inten    --     16.5736                 1.7014                14.9886

                     34                     35                     36
                      A                      A                      A
 Frequencies --   1304.1013              1362.3128              1410.1119
 Red. masses --      1.8305                 1.7615                 1.5934
 Frc consts  --      1.8342                 1.9261                 1.8667
 IR Inten    --     11.4629                12.5067                 5.5286

                     37                     38                     39
                      A                      A                      A
 Frequencies --   1412.0064              1472.6617              1495.5215
 Red. masses --      1.7029                 1.8926                 1.0532
 Frc consts  --      2.0003                 2.4183                 1.3879
 IR Inten    --      0.1298                20.0705                 2.9120

                     40                     41                     42
                      A                      A                      A
 Frequencies --   1499.9358              1520.9020              2952.2773
 Red. masses --      1.0546                 1.0772                 1.0541
 Frc consts  --      1.3979                 1.4681                 5.4130
 IR Inten    --      2.8108                 1.6070                66.5846

                     43                     44                     45
                      A                      A                      A
 Frequencies --   2975.2438              3026.6602              3031.1978
 Red. masses --      1.1057                 1.0361                 1.0824
 Frc consts  --      5.7667                 5.5924                 5.8598
 IR Inten    --     55.1658                29.2818                35.4489

                     46                     47                     48
                      A                      A                      A
 Frequencies --   3092.5397              3096.7773              3133.2389
 Red. masses --      1.1013                 1.1010                 1.0923
 Frc consts  --      6.2054                 6.2210                 6.3179
 IR Inten    --     24.0499                34.3257                40.2035

                     49                     50                     51
                      A                      A                      A
 Frequencies --   3212.5919              3231.1597              3835.5010
 Red. masses --      1.0934                 1.0994                 1.0665
 Frc consts  --      6.6490                 6.7626                 9.2442
 IR Inten    --      7.4233                 7.4645                25.2076

 - Thermochemistry -
 -------------------
 Temperature   298.150 Kelvin.  Pressure   1.00000 Atm.
 Atom     1 has atomic number  6 and mass  12.00000

 Molecular mass:   126.06808 amu.
 Principal axes and moments of inertia in atomic units:
                           1         2         3
     Eigenvalues --   721.652781108.748661569.96651
           X            0.99858   0.05158   0.01347
           Y           -0.05144   0.99862  -0.01026
           Z           -0.01398   0.00956   0.99986
 This molecule is an asymmetric top.
 Rotational symmetry number  1.
 Warning -- assumption of classical behavior for rotation
           may cause significant error
 Rotational temperatures (Kelvin)      0.12002     0.07812     0.05517
 Rotational constants (GHZ):           2.50084     1.62773     1.14954
 Zero-point vibrational energy     415520.6 (Joules/Mol)
                                   99.31180 (Kcal/Mol)
 Warning -- explicit consideration of  10 degrees of freedom as
           vibrations may cause significant error
 Vibrational temperatures:    124.42   224.83   283.69   324.43   342.19
          (Kelvin)            364.94   430.30   644.77   737.55   801.33
                              915.17  1088.46  1106.61  1144.45  1204.81
                             1263.70  1311.53  1363.09  1382.39  1412.79
                             1495.68  1527.01  1531.92  1548.49  1568.20
                             1622.65  1643.11  1680.36  1704.51  1767.74
                             1775.97  1810.27  1843.33  1876.31  1960.06
                             2028.83  2031.56  2118.83  2151.72  2158.07
                             2188.24  4247.66  4280.71  4354.68  4361.21
                             4449.47  4455.57  4508.03  4622.20  4648.91
                             5518.42

 Zero-point correction=                           0.158263 (Hartree/Particle)
 Thermal correction to Energy=                    0.166687
 Thermal correction to Enthalpy=                  0.167631
 Thermal correction to Gibbs Free Energy=         0.125327
 Sum of electronic and zero-point Energies=           -422.949172
 Sum of electronic and thermal Energies=              -422.940748
 Sum of electronic and thermal Enthalpies=            -422.939804
 Sum of electronic and thermal Free Energies=         -422.982108

                     E (Thermal)             CV                S
                      KCal/Mol        Cal/Mol-Kelvin    Cal/Mol-Kelvin
 Total                  104.597             32.264             89.035
 Electronic               0.000              0.000              0.000
 Translational            0.889              2.981             40.409
 Rotational               0.889              2.981             28.620
 Vibrational            102.820             26.302             20.006
 Vibration     1          0.601              1.959              3.738
 Vibration     2          0.620              1.896              2.595
 Vibration     3          0.637              1.844              2.159
 Vibration     4          0.650              1.802              1.915
 Vibration     5          0.656              1.783              1.819
 Vibration     6          0.665              1.757              1.705
 Vibration     7          0.692              1.675              1.422
 Vibration     8          0.807              1.365              0.801
 Vibration     9          0.868              1.222              0.627
 Vibration    10          0.912              1.125              0.530

 Optimization completed.
    -- Stationary point found.
 Normal termination of Gaussian 09 at Tue Jan 28 09:56:25 2020.
