 Gaussian 09, Revision D.01,
 Gaussian 09:  ES64L-G09RevD.01 24-Apr-2013

 -----------------------------
 # b3lyp 6-31G(2df,p) opt Freq
 -----------------------------

 -----
 titel
 -----
 Symbolic Z-matrix:
 Charge =  0 Multiplicity = 1

 SCF Done:  E(RB3LYP) =  -423.157792157     A.U. after   13 cycles
 Optimization completed.
    -- Stationary point found.
 Normal termination of Gaussian 09 at Mon Jan 27 12:18:50 2020.

 ----------------------------------------------------------------------
 #N Geom=AllCheck Guess=TCheck SCRF=Check GenChk RB3LYP/6-31G(2df,p) Fr
 eq
 ----------------------------------------------------------------------

 Structure from the checkpoint file:  "/scratch/puck/g09_328f0534-7206-4691-99b5-b2967d8cc322/Gau-167163.chk"
 -----
 titel
 -----
 Charge =  0 Multiplicity = 1

                         Standard orientation:
 ---------------------------------------------------------------------
 Center     Atomic      Atomic             Coordinates (Angstroms)
 Number     Number       Type             X           Y           Z
 ---------------------------------------------------------------------
      1          6           0       -2.250228   -0.185044    0.069782
      2          8           0       -1.381512   -1.049077   -0.711885
      3          6           0       -0.222574   -0.505453   -0.079328
      4          6           0        0.942830   -1.398992    0.270368
      5          6           0        2.070326   -0.365400    0.430780
      6          8           0        1.806537    0.674652   -0.517236
      7          6           0        0.411134    0.762671   -0.730227
      8          6           0       -0.393174    1.664024    0.264226
      9          6           0       -1.063767    0.402604    0.864973
     10          1           0       -2.801980    0.523724   -0.560665
     11          1           0       -2.962761   -0.775523    0.656293
     12          1           0        0.787830   -2.004083    1.167127
     13          1           0        1.140035   -2.068840   -0.574424
     14          1           0        2.078270    0.038749    1.455403
     15          1           0        3.065684   -0.763470    0.218131
     16          1           0        0.221926    0.929479   -1.793729
     17          1           0        0.267704    2.181568    0.963818
     18          1           0       -1.066111    2.395877   -0.191229
     19          1           0       -1.098082    0.291459    1.948806
 ---------------------------------------------------------------------

 SCF Done:  E(RB3LYP) =  -423.157792157     A.U. after    1 cycles

 The electronic state is 1-A.
 Alpha  occ. eigenvalues --  -19.13809 -19.13635 -10.23458 -10.23401 -10.23128
 Alpha  occ. eigenvalues --  -10.22321 -10.19210 -10.18697 -10.18321  -1.04850
 Alpha  occ. eigenvalues --   -1.02914  -0.81844  -0.77165  -0.71560  -0.65122
 Alpha  occ. eigenvalues --   -0.62467  -0.58785  -0.52388  -0.51158  -0.48684
 Alpha  occ. eigenvalues --   -0.47803  -0.45039  -0.44007  -0.42631  -0.40258
 Alpha  occ. eigenvalues --   -0.38854  -0.37381  -0.35274  -0.33991  -0.32708
 Alpha  occ. eigenvalues --   -0.30995  -0.28400  -0.24926  -0.23474
 Alpha virt. eigenvalues --    0.06532   0.08641   0.09553   0.11271   0.12214
 Alpha virt. eigenvalues --    0.13873   0.14263   0.15183   0.15661   0.16617
 Alpha virt. eigenvalues --    0.18321   0.19159   0.19426   0.20621   0.21550

 Mulliken charges:
               1
     1  C   -0.096058
     2  O   -0.339197
     3  C    0.460840
     4  C   -0.339094
     5  C   -0.085369
     6  O   -0.263556
     7  C    0.065322
     8  C   -0.272232
     9  C   -0.152175
    10  H    0.102199
    11  H    0.107815
    12  H    0.107300
    13  H    0.122076
    14  H    0.094328
    15  H    0.114399
    16  H    0.084368
    17  H    0.112081
    18  H    0.101150
    19  H    0.075804
 Sum of Mulliken charges =   0.00000

 Dipole moment (field-independent basis, Debye):
    X=             -0.5304    Y=              0.1114    Z=              1.7552  Tot=              1.8370
 Quadrupole moment (field-independent basis, Debye-Ang):
   XX=            -52.8553   YY=            -54.2554   ZZ=            -52.8836
   XY=             -4.9404   XZ=              0.2841   YZ=             -1.4666

  Exact polarizability:  84.173  -4.118  72.081   0.752  -1.455  65.294
 Approx polarizability: 112.062  -3.210 104.143   0.112  -0.639 101.722

                      1                      2                      3
                      A                      A                      A
 Frequencies --     97.6429               175.4747               235.2884
 Red. masses --      2.6915                 2.3956                 2.8002
 Frc consts  --      0.0151                 0.0435                 0.0913
 IR Inten    --      0.7261                 2.5732                 3.9480

                      4                      5                      6
                      A                      A                      A
 Frequencies --    347.8461               356.3009               427.0370
 Red. masses --      3.3449                 2.4791                 2.1722
 Frc consts  --      0.2385                 0.1854                 0.2334
 IR Inten    --      2.9624                 1.0222                 1.5550

                      7                      8                      9
                      A                      A                      A
 Frequencies --    466.9686               629.9402               647.9728
 Red. masses --      4.3494                 3.8834                 2.4151
 Frc consts  --      0.5588                 0.9079                 0.5974
 IR Inten    --      1.8757                 9.1932                 2.4310

                     10                     11                     12
                      A                      A                      A
 Frequencies --    719.2949               801.5170               838.6801
 Red. masses --      2.6725                 2.4589                 2.5113
 Frc consts  --      0.8147                 0.9307                 1.0408
 IR Inten    --      1.3643                 5.3017                 2.4961

                     13                     14                     15
                      A                      A                      A
 Frequencies --    860.3211               885.5190               905.2771
 Red. masses --      2.6986                 2.0334                 1.5554
 Frc consts  --      1.1768                 0.9395                 0.7510
 IR Inten    --      3.5388                 2.8150                 7.0615

                     16                     17                     18
                      A                      A                      A
 Frequencies --    921.0945               968.3380               978.4475
 Red. masses --      2.2411                 1.9603                 3.5124
 Frc consts  --      1.1203                 1.0830                 1.9812
 IR Inten    --      6.3021                10.2205                33.4706

                     19                     20                     21
                      A                      A                      A
 Frequencies --   1000.7339              1032.7820              1038.0632
 Red. masses --      5.0453                 1.9671                 2.8459
 Frc consts  --      2.9770                 1.2362                 1.8068
 IR Inten    --     41.2959                 8.1454                50.9499

                     22                     23                     24
                      A                      A                      A
 Frequencies --   1096.2627              1111.1251              1135.5327
 Red. masses --      2.0940                 2.7659                 2.3649
 Frc consts  --      1.4827                 2.0119                 1.7966
 IR Inten    --     35.0761                15.2087                30.3681

                     25                     26                     27
                      A                      A                      A
 Frequencies --   1147.6956              1161.4639              1191.1936
 Red. masses --      1.7993                 1.5859                 1.3613
 Frc consts  --      1.3964                 1.2605                 1.1381
 IR Inten    --      9.1179                16.1317                 3.8285

                     28                     29                     30
                      A                      A                      A
 Frequencies --   1216.3040              1219.8936              1243.6908
 Red. masses --      1.6910                 1.3776                 1.3099
 Frc consts  --      1.4740                 1.2079                 1.1937
 IR Inten    --     21.6509                 1.0344                12.5290

                     31                     32                     33
                      A                      A                      A
 Frequencies --   1264.3805              1281.3627              1305.7054
 Red. masses --      1.5828                 2.3131                 1.4799
 Frc consts  --      1.4909                 2.2376                 1.4865
 IR Inten    --      6.4088                11.4789                 2.9408

                     34                     35                     36
                      A                      A                      A
 Frequencies --   1319.0786              1346.2643              1356.2521
 Red. masses --      1.9154                 1.2986                 1.4637
 Frc consts  --      1.9636                 1.3867                 1.5863
 IR Inten    --     30.8252                 3.3302                 6.5595

                     37                     38                     39
                      A                      A                      A
 Frequencies --   1396.5984              1469.2046              1478.0974
 Red. masses --      1.4209                 1.1047                 1.1066
 Frc consts  --      1.6328                 1.4049                 1.4244
 IR Inten    --      2.9686                 5.3208                 2.7076

                     40                     41                     42
                      A                      A                      A
 Frequencies --   1518.1181              1522.3471              2979.7629
 Red. masses --      1.1085                 1.0917                 1.0721
 Frc consts  --      1.5052                 1.4906                 5.6084
 IR Inten    --      0.5995                 1.0569                57.1852

                     43                     44                     45
                      A                      A                      A
 Frequencies --   3016.6311              3048.1434              3057.5273
 Red. masses --      1.0565                 1.0618                 1.0605
 Frc consts  --      5.6648                 5.8125                 5.8414
 IR Inten    --     73.6797                15.3729                23.2942

                     46                     47                     48
                      A                      A                      A
 Frequencies --   3065.1826              3077.3056              3093.6360
 Red. masses --      1.1088                 1.0880                 1.0918
 Frc consts  --      6.1381                 6.0702                 6.1564
 IR Inten    --     30.5950                41.7847                37.7503

                     49                     50                     51
                      A                      A                      A
 Frequencies --   3105.7218              3107.9601              3118.6603
 Red. masses --      1.0932                 1.1027                 1.1039
 Frc consts  --      6.2127                 6.2758                 6.3257
 IR Inten    --     13.0828                24.1563                31.3722

 - Thermochemistry -
 -------------------
 Temperature   298.150 Kelvin.  Pressure   1.00000 Atm.
 Atom     1 has atomic number  6 and mass  12.00000

 Molecular mass:   126.06808 amu.
 Principal axes and moments of inertia in atomic units:
                           1         2         3
     Eigenvalues --   574.980731083.590951341.51167
           X            0.99864  -0.05166   0.00767
           Y            0.05182   0.99843  -0.02124
           Z           -0.00656   0.02161   0.99975
 This molecule is an asymmetric top.
 Rotational symmetry number  1.
 Warning -- assumption of classical behavior for rotation
           may cause significant error
 Rotational temperatures (Kelvin)      0.15064     0.07993     0.06456
 Rotational constants (GHZ):           3.13879     1.66552     1.34530
 Zero-point vibrational energy     423392.2 (Joules/Mol)
                                  101.19316 (Kcal/Mol)
 Warning -- explicit consideration of   7 degrees of freedom as
           vibrations may cause significant error
 Vibrational temperatures:    140.49   252.47   338.53   500.47   512.64
          (Kelvin)            614.41   671.86   906.34   932.29  1034.90
                             1153.20  1206.67  1237.81  1274.06  1302.49
                             1325.25  1393.22  1407.77  1439.83  1485.94
                             1493.54  1577.28  1598.66  1633.78  1651.28
                             1671.09  1713.86  1749.99  1755.15  1789.39
                             1819.16  1843.59  1878.62  1897.86  1936.97
                             1951.34  2009.39  2113.86  2126.65  2184.23
                             2190.32  4287.21  4340.25  4385.59  4399.09
                             4410.11  4427.55  4451.05  4468.44  4471.66
                             4487.05

 Zero-point correction=                           0.161262 (Hartree/Particle)
 Thermal correction to Energy=                    0.168394
 Thermal correction to Enthalpy=                  0.169338
 Thermal correction to Gibbs Free Energy=         0.129710
 Sum of electronic and zero-point Energies=           -422.996531
 Sum of electronic and thermal Energies=              -422.989398
 Sum of electronic and thermal Enthalpies=            -422.988454
 Sum of electronic and thermal Free Energies=         -423.028082

                     E (Thermal)             CV                S
                      KCal/Mol        Cal/Mol-Kelvin    Cal/Mol-Kelvin
 Total                  105.669             28.615             83.405
 Electronic               0.000              0.000              0.000
 Translational            0.889              2.981             40.409
 Rotational               0.889              2.981             28.215
 Vibrational            103.891             22.654             14.781
 Vibration     1          0.603              1.951              3.501
 Vibration     2          0.627              1.873              2.376
 Vibration     3          0.655              1.787              1.838
 Vibration     4          0.725              1.580              1.176
 Vibration     5          0.732              1.562              1.138
 Vibration     6          0.789              1.411              0.868
 Vibration     7          0.824              1.323              0.746

 Optimization completed.
    -- Stationary point found.
 Normal termination of Gaussian 09 at Mon Jan 27 13:06:54 2020.
