 Gaussian 09, Revision D.01,
 Gaussian 09:  ES64L-G09RevD.01 24-Apr-2013

 -----------------------------
 # b3lyp 6-31G(2df,p) opt Freq
 -----------------------------

 -----
 titel
 -----
 Symbolic Z-matrix:
 Charge =  0 Multiplicity = 1

 SCF Done:  E(RB3LYP) =  -423.245673439     A.U. after   14 cycles
 Optimization completed.
    -- Stationary point found.
 Normal termination of Gaussian 09 at Tue Jan 28 00:42:57 2020.

 ----------------------------------------------------------------------
 #N Geom=AllCheck Guess=TCheck SCRF=Check GenChk RB3LYP/6-31G(2df,p) Fr
 eq
 ----------------------------------------------------------------------

 Structure from the checkpoint file:  "/scratch/puck/g09_15f83660-e028-4988-8697-497d6bb74972/Gau-37435.chk"
 -----
 titel
 -----
 Charge =  0 Multiplicity = 1

                         Standard orientation:
 ---------------------------------------------------------------------
 Center     Atomic      Atomic             Coordinates (Angstroms)
 Number     Number       Type             X           Y           Z
 ---------------------------------------------------------------------
      1          6           0        2.717405   -0.347734    0.153940
      2          6           0        1.288195   -0.373249   -0.389021
      3          6           0        0.401148   -1.554685    0.049873
      4          6           0       -1.020812   -0.990841    0.083307
      5          8           0       -2.033610   -1.598514   -0.147975
      6          6           0       -0.928950    0.496249    0.422512
      7          6           0       -2.059129    1.382559   -0.091455
      8          6           0        0.482955    0.887936   -0.023405
      9          8           0        0.902285    2.014249   -0.097196
     10          1           0        2.721111   -0.407519    1.247827
     11          1           0        3.300504   -1.188788   -0.231626
     12          1           0        3.211289    0.583029   -0.135446
     13          1           0        1.332148   -0.357957   -1.488511
     14          1           0        0.458362   -2.437744   -0.588989
     15          1           0        0.662881   -1.868557    1.070160
     16          1           0       -0.898627    0.542201    1.525212
     17          1           0       -2.123098    1.335759   -1.182339
     18          1           0       -3.017088    1.051106    0.314612
     19          1           0       -1.881754    2.421174    0.195969
 ---------------------------------------------------------------------

 SCF Done:  E(RB3LYP) =  -423.245673439     A.U. after    1 cycles

 The electronic state is 1-A.
 Alpha  occ. eigenvalues --  -19.14177 -19.14121 -10.27777 -10.27728 -10.21185
 Alpha  occ. eigenvalues --  -10.20814 -10.20279 -10.19091 -10.18712  -1.05399
 Alpha  occ. eigenvalues --   -1.04997  -0.85019  -0.78534  -0.72545  -0.67013
 Alpha  occ. eigenvalues --   -0.63761  -0.55072  -0.52867  -0.50066  -0.47706
 Alpha  occ. eigenvalues --   -0.46024  -0.44414  -0.43014  -0.42612  -0.40425
 Alpha  occ. eigenvalues --   -0.39733  -0.38354  -0.38297  -0.37545  -0.36154
 Alpha  occ. eigenvalues --   -0.35244  -0.34323  -0.26429  -0.23941
 Alpha virt. eigenvalues --   -0.03894  -0.01253   0.07919   0.11323   0.11562
 Alpha virt. eigenvalues --    0.12673   0.14059   0.15050   0.16012   0.16652
 Alpha virt. eigenvalues --    0.17005   0.17337   0.18726   0.21354   0.23067

 Mulliken charges:
               1
     1  C   -0.403127
     2  C   -0.089405
     3  C   -0.342436
     4  C    0.373786
     5  O   -0.303286
     6  C   -0.211707
     7  C   -0.399815
     8  C    0.390372
     9  O   -0.320446
    10  H    0.119016
    11  H    0.121539
    12  H    0.144840
    13  H    0.118435
    14  H    0.132563
    15  H    0.129165
    16  H    0.136646
    17  H    0.128519
    18  H    0.137039
    19  H    0.138301
 Sum of Mulliken charges =   0.00000

 Dipole moment (field-independent basis, Debye):
    X=              1.4263    Y=             -0.9299    Z=              0.6429  Tot=              1.8200
 Quadrupole moment (field-independent basis, Debye-Ang):
   XX=            -57.1521   YY=            -60.7504   ZZ=            -50.0249
   XY=             -8.6813   XZ=             -1.2209   YZ=              0.0012

  Exact polarizability:  88.055  -0.620  79.791  -0.115   1.029  59.306
 Approx polarizability: 117.892   9.981 120.078   1.008   2.177  94.986

                      1                      2                      3
                      A                      A                      A
 Frequencies --     37.6443                84.2899               153.1750
 Red. masses --      3.8570                 3.4319                 1.0349
 Frc consts  --      0.0032                 0.0144                 0.0143
 IR Inten    --      3.4836                 4.3377                 0.3917

                      4                      5                      6
                      A                      A                      A
 Frequencies --    214.1723               217.9446               236.7847
 Red. masses --      1.2708                 2.3337                 2.7920
 Frc consts  --      0.0343                 0.0653                 0.0922
 IR Inten    --      0.5330                 1.6108                 5.0321

                      7                      8                      9
                      A                      A                      A
 Frequencies --    252.2497               344.6410               388.4503
 Red. masses --      3.2190                 3.0076                 4.4578
 Frc consts  --      0.1207                 0.2105                 0.3963
 IR Inten    --      1.5134                 1.5778                15.0571

                     10                     11                     12
                      A                      A                      A
 Frequencies --    479.2849               535.1495               564.8986
 Red. masses --      3.3459                 3.6880                 4.4634
 Frc consts  --      0.4529                 0.6223                 0.8392
 IR Inten    --      1.0490                 7.3125                 4.0230

                     13                     14                     15
                      A                      A                      A
 Frequencies --    614.6391               680.0822               759.8738
 Red. masses --      3.9883                 3.9103                 2.9350
 Frc consts  --      0.8877                 1.0656                 0.9985
 IR Inten    --      1.8340                 1.1392                 3.7102

                     16                     17                     18
                      A                      A                      A
 Frequencies --    802.4289               874.0318               902.2847
 Red. masses --      2.2362                 1.6084                 2.2204
 Frc consts  --      0.8483                 0.7239                 1.0650
 IR Inten    --      4.9812                 1.9343                 7.8665

                     19                     20                     21
                      A                      A                      A
 Frequencies --    973.8618               987.3075               993.6155
 Red. masses --      2.0164                 1.3469                 1.2155
 Frc consts  --      1.1267                 0.7735                 0.7070
 IR Inten    --     29.2121                 4.0041                 4.5854

                     22                     23                     24
                      A                      A                      A
 Frequencies --   1044.3486              1119.8986              1134.7214
 Red. masses --      2.6979                 2.5020                 1.9602
 Frc consts  --      1.7337                 1.8489                 1.4871
 IR Inten    --     21.5126                 4.5039                 0.2570

                     25                     26                     27
                      A                      A                      A
 Frequencies --   1144.0123              1185.1102              1216.5971
 Red. masses --      2.0311                 1.8893                 1.9023
 Frc consts  --      1.5662                 1.5634                 1.6589
 IR Inten    --      3.9839                19.0954                 1.6423

                     28                     29                     30
                      A                      A                      A
 Frequencies --   1224.6831              1265.7644              1300.7431
 Red. masses --      1.7181                 1.3771                 1.8167
 Frc consts  --      1.5183                 1.2999                 1.8110
 IR Inten    --     48.1700                 1.3772                18.7468

                     31                     32                     33
                      A                      A                      A
 Frequencies --   1311.8158              1334.1951              1403.9292
 Red. masses --      1.8112                 1.7820                 1.2072
 Frc consts  --      1.8364                 1.8690                 1.4019
 IR Inten    --     27.6955                14.4162                 3.1127

                     34                     35                     36
                      A                      A                      A
 Frequencies --   1405.5607              1461.3836              1491.6319
 Red. masses --      1.2112                 1.0905                 1.0468
 Frc consts  --      1.4098                 1.3721                 1.3723
 IR Inten    --      3.7871                 7.8852                11.0240

                     37                     38                     39
                      A                      A                      A
 Frequencies --   1495.2411              1496.1456              1498.8731
 Red. masses --      1.0468                 1.0476                 1.0467
 Frc consts  --      1.3790                 1.3817                 1.3855
 IR Inten    --      3.0325                 3.9988                 8.6900

                     40                     41                     42
                      A                      A                      A
 Frequencies --   1824.8194              1864.3114              2973.2519
 Red. masses --     12.6561                12.4574                 1.0786
 Frc consts  --     24.8307                25.5102                 5.6178
 IR Inten    --    328.7684                44.3477                 4.7641

                     43                     44                     45
                      A                      A                      A
 Frequencies --   3000.5640              3023.8419              3039.0859
 Red. masses --      1.0808                 1.0686                 1.0365
 Frc consts  --      5.7332                 5.7566                 5.6402
 IR Inten    --      4.8164                 9.6628                25.1563

                     46                     47                     48
                      A                      A                      A
 Frequencies --   3054.0137              3106.5001              3118.2564
 Red. masses --      1.0347                 1.1005                 1.0943
 Frc consts  --      5.6861                 6.2571                 6.2691
 IR Inten    --     17.5446                20.9435                11.5230

                     49                     50                     51
                      A                      A                      A
 Frequencies --   3125.1805              3128.6445              3141.0201
 Red. masses --      1.1011                 1.1016                 1.1034
 Frc consts  --      6.3361                 6.3533                 6.4139
 IR Inten    --     14.2488                 9.7638                 8.0456

 - Thermochemistry -
 -------------------
 Temperature   298.150 Kelvin.  Pressure   1.00000 Atm.
 Atom     1 has atomic number  6 and mass  12.00000

 Molecular mass:   126.06808 amu.
 Principal axes and moments of inertia in atomic units:
                           1         2         3
     Eigenvalues --   776.355521186.318651861.04870
           X            0.98886  -0.14881   0.00173
           Y            0.14881   0.98886  -0.00167
           Z           -0.00146   0.00190   1.00000
 This molecule is an asymmetric top.
 Rotational symmetry number  1.
 Warning -- assumption of classical behavior for rotation
           may cause significant error
 Rotational temperatures (Kelvin)      0.11156     0.07301     0.04654
 Rotational constants (GHZ):           2.32463     1.52130     0.96974
 Zero-point vibrational energy     412896.8 (Joules/Mol)
                                   98.68470 (Kcal/Mol)
 Warning -- explicit consideration of  13 degrees of freedom as
           vibrations may cause significant error
 Vibrational temperatures:     54.16   121.27   220.38   308.15   313.57
          (Kelvin)            340.68   362.93   495.86   558.89   689.58
                              769.96   812.76   884.33   978.49  1093.29
                             1154.51  1257.54  1298.18  1401.17  1420.51
                             1429.59  1502.58  1611.28  1632.61  1645.98
                             1705.11  1750.41  1762.04  1821.15  1871.48
                             1887.41  1919.61  2019.94  2022.29  2102.60
                             2146.12  2151.32  2152.62  2156.54  2625.50
                             2682.32  4277.84  4317.14  4350.63  4372.56
                             4394.04  4469.56  4486.47  4496.43  4501.42
                             4519.22

 Zero-point correction=                           0.157264 (Hartree/Particle)
 Thermal correction to Energy=                    0.166633
 Thermal correction to Enthalpy=                  0.167577
 Thermal correction to Gibbs Free Energy=         0.122426
 Sum of electronic and zero-point Energies=           -423.088409
 Sum of electronic and thermal Energies=              -423.079040
 Sum of electronic and thermal Enthalpies=            -423.078096
 Sum of electronic and thermal Free Energies=         -423.123248

                     E (Thermal)             CV                S
                      KCal/Mol        Cal/Mol-Kelvin    Cal/Mol-Kelvin
 Total                  104.564             34.006             95.030
 Electronic               0.000              0.000              0.000
 Translational            0.889              2.981             40.409
 Rotational               0.889              2.981             28.929
 Vibrational            102.786             28.044             25.692
 Vibration     1          0.594              1.982              5.379
 Vibration     2          0.601              1.960              3.788
 Vibration     3          0.619              1.899              2.632
 Vibration     4          0.644              1.819              2.008
 Vibration     5          0.646              1.814              1.976
 Vibration     6          0.656              1.784              1.827
 Vibration     7          0.664              1.759              1.715
 Vibration     8          0.723              1.586              1.191
 Vibration     9          0.757              1.495              1.006
 Vibration    10          0.836              1.296              0.712
 Vibration    11          0.890              1.172              0.576
 Vibration    12          0.921              1.107              0.514
 Vibration    13          0.974              1.001              0.425

 Optimization completed.
    -- Stationary point found.
 Normal termination of Gaussian 09 at Tue Jan 28 02:41:50 2020.
