 Gaussian 09, Revision D.01,
 Gaussian 09:  ES64L-G09RevD.01 24-Apr-2013

 -----------------------------
 # b3lyp 6-31G(2df,p) opt Freq
 -----------------------------

 -----
 titel
 -----
 Symbolic Z-matrix:
 Charge =  0 Multiplicity = 1

 SCF Done:  E(RB3LYP) =  -423.094002276     A.U. after   12 cycles
 Optimization completed.
    -- Stationary point found.
 Normal termination of Gaussian 09 at Mon Jan 27 22:12:17 2020.

 ----------------------------------------------------------------------
 #N Geom=AllCheck Guess=TCheck SCRF=Check GenChk RB3LYP/6-31G(2df,p) Fr
 eq
 ----------------------------------------------------------------------

 Structure from the checkpoint file:  "/scratch/puck/g09_0580b069-db18-4af3-9190-7de6c83739a8/Gau-28854.chk"
 -----
 titel
 -----
 Charge =  0 Multiplicity = 1

                         Standard orientation:
 ---------------------------------------------------------------------
 Center     Atomic      Atomic             Coordinates (Angstroms)
 Number     Number       Type             X           Y           Z
 ---------------------------------------------------------------------
      1          6           0       -2.619554   -1.029838   -0.304748
      2          6           0       -1.122267   -0.794071   -0.323324
      3          6           0       -0.493769   -0.413541    1.013065
      4          6           0        1.044334   -0.223676    0.968827
      5          6           0        1.681391   -0.432526   -0.380923
      6          8           0        3.072500   -0.306335   -0.467316
      7          6           0        0.882325    0.823495   -0.141569
      8          6           0       -0.661246    0.622585   -0.072606
      9          8           0       -1.517617    1.709634   -0.070376
     10          1           0       -3.054362   -0.872482   -1.298357
     11          1           0       -2.847462   -2.056870   -0.001297
     12          1           0       -3.120503   -0.347255    0.386499
     13          1           0       -0.593122   -1.441302   -1.016213
     14          1           0       -1.046881   -0.535350    1.936121
     15          1           0        1.655676   -0.170369    1.862703
     16          1           0        1.368063   -1.209954   -1.067549
     17          1           0        3.358486    0.377283    0.148512
     18          1           0        1.331001    1.807433   -0.217647
     19          1           0       -1.757249    1.907898   -0.983574
 ---------------------------------------------------------------------

 SCF Done:  E(RB3LYP) =  -423.094002276     A.U. after    1 cycles

 The electronic state is 1-A.
 Alpha  occ. eigenvalues --  -19.15049 -19.14472 -10.23992 -10.23907 -10.19272
 Alpha  occ. eigenvalues --  -10.19103 -10.18928 -10.18687 -10.17829  -1.03628
 Alpha  occ. eigenvalues --   -1.03001  -0.90585  -0.80013  -0.70704  -0.63114
 Alpha  occ. eigenvalues --   -0.62604  -0.57608  -0.54048  -0.51745  -0.50679
 Alpha  occ. eigenvalues --   -0.48528  -0.44000  -0.41827  -0.40949  -0.39423
 Alpha  occ. eigenvalues --   -0.37584  -0.37109  -0.36239  -0.34804  -0.33267
 Alpha  occ. eigenvalues --   -0.30438  -0.25681  -0.24151  -0.21040
 Alpha virt. eigenvalues --    0.06738   0.07564   0.08449   0.09800   0.11610
 Alpha virt. eigenvalues --    0.13533   0.14816   0.16004   0.16255   0.17623
 Alpha virt. eigenvalues --    0.17985   0.18523   0.22022   0.22462   0.23166

 Mulliken charges:
               1
     1  C   -0.429914
     2  C   -0.100911
     3  C   -0.132342
     4  C   -0.131603
     5  C    0.126813
     6  O   -0.444379
     7  C   -0.204834
     8  C    0.379880
     9  O   -0.454884
    10  H    0.111639
    11  H    0.119127
    12  H    0.131609
    13  H    0.080982
    14  H    0.095224
    15  H    0.087578
    16  H    0.106107
    17  H    0.284998
    18  H    0.089278
    19  H    0.285632
 Sum of Mulliken charges =   0.00000

 Dipole moment (field-independent basis, Debye):
    X=             -0.6395    Y=              0.4959    Z=             -0.2036  Tot=              0.8345
 Quadrupole moment (field-independent basis, Debye-Ang):
   XX=            -54.3362   YY=            -53.6683   ZZ=            -50.9827
   XY=              4.5749   XZ=              6.1470   YZ=             -2.1682

  Exact polarizability:  90.172   3.169  69.221   3.011  -0.844  66.456
 Approx polarizability: 114.635  -0.386 108.221   2.608  -2.538 107.804

                      1                      2                      3
                      A                      A                      A
 Frequencies --    177.0140               185.7380               195.1459
 Red. masses --      2.9695                 1.3456                 2.2589
 Frc consts  --      0.0548                 0.0274                 0.0507
 IR Inten    --      2.3662                 1.0344                 0.2862

                      4                      5                      6
                      A                      A                      A
 Frequencies --    221.7752               242.7009               262.8168
 Red. masses --      1.1719                 2.6927                 1.6334
 Frc consts  --      0.0340                 0.0935                 0.0665
 IR Inten    --     68.7188                 4.7733                21.0631

                      7                      8                      9
                      A                      A                      A
 Frequencies --    280.7421               300.6839               381.2558
 Red. masses --      1.7828                 3.1295                 3.6751
 Frc consts  --      0.0828                 0.1667                 0.3147
 IR Inten    --     86.8799                16.4600                 5.1615

                     10                     11                     12
                      A                      A                      A
 Frequencies --    416.8784               453.9327               564.6743
 Red. masses --      5.0643                 2.9819                 3.3002
 Frc consts  --      0.5185                 0.3620                 0.6200
 IR Inten    --      7.5628                 1.2296                 2.5328

                     13                     14                     15
                      A                      A                      A
 Frequencies --    653.7179               761.7439               780.6337
 Red. masses --      4.0731                 2.6059                 1.8471
 Frc consts  --      1.0255                 0.8909                 0.6632
 IR Inten    --      4.2678                 4.0164                 6.1288

                     16                     17                     18
                      A                      A                      A
 Frequencies --    818.5329               835.8016               899.9627
 Red. masses --      1.8349                 4.5846                 2.4097
 Frc consts  --      0.7243                 1.8869                 1.1499
 IR Inten    --      4.6142                34.0131                13.3936

                     19                     20                     21
                      A                      A                      A
 Frequencies --    925.4510               962.3100               969.4247
 Red. masses --      1.8435                 1.5752                 2.0313
 Frc consts  --      0.9302                 0.8594                 1.1247
 IR Inten    --      9.2319                 4.3386                 1.5769

                     22                     23                     24
                      A                      A                      A
 Frequencies --    992.4312              1039.3914              1057.6292
 Red. masses --      1.3821                 1.5977                 2.3268
 Frc consts  --      0.8020                 1.0170                 1.5335
 IR Inten    --      2.7140                13.0442                 6.7294

                     25                     26                     27
                      A                      A                      A
 Frequencies --   1087.2946              1106.3798              1118.1240
 Red. masses --      1.3537                 2.4154                 1.9164
 Frc consts  --      0.9429                 1.7420                 1.4116
 IR Inten    --      1.2516                28.8453                15.8673

                     28                     29                     30
                      A                      A                      A
 Frequencies --   1129.9798              1140.1605              1171.3669
 Red. masses --      2.6345                 1.6642                 1.8412
 Frc consts  --      1.9820                 1.2747                 1.4884
 IR Inten    --    120.9629                 0.1575                 6.3412

                     31                     32                     33
                      A                      A                      A
 Frequencies --   1212.0681              1250.8115              1267.2590
 Red. masses --      1.7492                 1.6682                 1.6426
 Frc consts  --      1.5140                 1.5378                 1.5542
 IR Inten    --     24.8875                67.6890                13.9530

                     34                     35                     36
                      A                      A                      A
 Frequencies --   1294.9484              1328.3174              1362.4370
 Red. masses --      1.5500                 1.9066                 1.6828
 Frc consts  --      1.5314                 1.9820                 1.8404
 IR Inten    --     65.9389                 9.2439                 2.3054

                     37                     38                     39
                      A                      A                      A
 Frequencies --   1412.9675              1447.9553              1456.9876
 Red. masses --      1.2928                 2.1979                 1.7653
 Frc consts  --      1.5207                 2.7150                 2.2079
 IR Inten    --      2.2157                15.3744                82.4902

                     40                     41                     42
                      A                      A                      A
 Frequencies --   1493.5343              1505.6777              3032.0552
 Red. masses --      1.0478                 1.1048                 1.0370
 Frc consts  --      1.3771                 1.4756                 5.6171
 IR Inten    --      2.9723                 7.4848                38.4983

                     43                     44                     45
                      A                      A                      A
 Frequencies --   3089.8794              3116.4429              3140.5166
 Red. masses --      1.1002                 1.0977                 1.0904
 Frc consts  --      6.1888                 6.2815                 6.3363
 IR Inten    --     23.0644                 5.5875                13.8199

                     46                     47                     48
                      A                      A                      A
 Frequencies --   3166.5373              3179.4220              3181.3196
 Red. masses --      1.0888                 1.0952                 1.0867
 Frc consts  --      6.4321                 6.5229                 6.4802
 IR Inten    --     13.2287                14.2511                30.7494

                     49                     50                     51
                      A                      A                      A
 Frequencies --   3191.5112              3771.8181              3804.7223
 Red. masses --      1.0937                 1.0661                 1.0657
 Frc consts  --      6.5635                 8.9358                 9.0891
 IR Inten    --      9.7732                16.6179                18.8944

 - Thermochemistry -
 -------------------
 Temperature   298.150 Kelvin.  Pressure   1.00000 Atm.
 Atom     1 has atomic number  6 and mass  12.00000

 Molecular mass:   126.06808 amu.
 Principal axes and moments of inertia in atomic units:
                           1         2         3
     Eigenvalues --   520.965391584.222631791.97042
           X            0.99941   0.03151   0.01383
           Y           -0.03159   0.99949   0.00553
           Z           -0.01364  -0.00597   0.99989
 This molecule is an asymmetric top.
 Rotational symmetry number  1.
 Warning -- assumption of classical behavior for rotation
           may cause significant error
 Rotational temperatures (Kelvin)      0.16626     0.05467     0.04833
 Rotational constants (GHZ):           3.46422     1.13920     1.00713
 Zero-point vibrational energy     411759.9 (Joules/Mol)
                                   98.41298 (Kcal/Mol)
 Warning -- explicit consideration of  12 degrees of freedom as
           vibrations may cause significant error
 Vibrational temperatures:    254.68   267.24   280.77   319.08   349.19
          (Kelvin)            378.13   403.92   432.62   548.54   599.79
                              653.11   812.44   940.55  1095.98  1123.16
                             1177.68  1202.53  1294.84  1331.52  1384.55
                             1394.78  1427.89  1495.45  1521.69  1564.37
                             1591.83  1608.73  1625.79  1640.43  1685.33
                             1743.89  1799.64  1823.30  1863.14  1911.15
                             1960.24  2032.94  2083.28  2096.28  2148.86
                             2166.33  4362.45  4445.64  4483.86  4518.50
                             4555.94  4574.47  4577.20  4591.87  5426.80
                             5474.14

 Zero-point correction=                           0.156831 (Hartree/Particle)
 Thermal correction to Energy=                    0.165805
 Thermal correction to Enthalpy=                  0.166749
 Thermal correction to Gibbs Free Energy=         0.123955
 Sum of electronic and zero-point Energies=           -422.937171
 Sum of electronic and thermal Energies=              -422.928197
 Sum of electronic and thermal Enthalpies=            -422.927253
 Sum of electronic and thermal Free Energies=         -422.970047

                     E (Thermal)             CV                S
                      KCal/Mol        Cal/Mol-Kelvin    Cal/Mol-Kelvin
 Total                  104.044             34.947             90.067
 Electronic               0.000              0.000              0.000
 Translational            0.889              2.981             40.409
 Rotational               0.889              2.981             28.782
 Vibrational            102.267             28.986             20.876
 Vibration     1          0.628              1.871              2.360
 Vibration     2          0.632              1.859              2.270
 Vibration     3          0.636              1.847              2.178
 Vibration     4          0.648              1.808              1.945
 Vibration     5          0.659              1.775              1.783
 Vibration     6          0.670              1.741              1.643
 Vibration     7          0.680              1.709              1.529
 Vibration     8          0.693              1.672              1.413
 Vibration     9          0.751              1.510              1.034
 Vibration    10          0.780              1.434              0.903
 Vibration    11          0.812              1.352              0.784
 Vibration    12          0.920              1.108              0.515

 Optimization completed.
    -- Stationary point found.
 Normal termination of Gaussian 09 at Tue Jan 28 00:23:45 2020.
