 Gaussian 09, Revision D.01,
 Gaussian 09:  ES64L-G09RevD.01 24-Apr-2013

 -----------------------------
 # b3lyp 6-31G(2df,p) opt Freq
 -----------------------------

 -----
 titel
 -----
 Symbolic Z-matrix:
 Charge =  0 Multiplicity = 1

 SCF Done:  E(RB3LYP) =  -423.189348491     A.U. after   14 cycles
 Optimization completed.
    -- Stationary point found.
 Normal termination of Gaussian 09 at Mon Jan 27 13:05:42 2020.

 ----------------------------------------------------------------------
 #N Geom=AllCheck Guess=TCheck SCRF=Check GenChk RB3LYP/6-31G(2df,p) Fr
 eq
 ----------------------------------------------------------------------

 Structure from the checkpoint file:  "/scratch/puck/g09_15f89294-4563-4dfd-bc41-fc56ed540925/Gau-157888.chk"
 -----
 titel
 -----
 Charge =  0 Multiplicity = 1

                         Standard orientation:
 ---------------------------------------------------------------------
 Center     Atomic      Atomic             Coordinates (Angstroms)
 Number     Number       Type             X           Y           Z
 ---------------------------------------------------------------------
      1          8           0       -0.599807    2.079322    0.038230
      2          6           0       -0.881992    0.914273   -0.045289
      3          6           0       -2.281974    0.306280    0.084137
      4          8           0       -2.140304   -1.071006   -0.201083
      5          6           0       -0.807570   -1.449543    0.146794
      6          6           0        0.079747   -0.265945   -0.265960
      7          6           0        1.400131   -0.127941    0.447700
      8          6           0        2.634599   -0.826863   -0.073993
      9          6           0        2.517871    0.673218   -0.165074
     10          1           0       -2.650636    0.484707    1.108880
     11          1           0       -2.990959    0.758077   -0.615799
     12          1           0       -0.723475   -1.631725    1.231293
     13          1           0       -0.581451   -2.379959   -0.377187
     14          1           0        0.248592   -0.318541   -1.351531
     15          1           0        1.310150   -0.064752    1.529316
     16          1           0        3.325926   -1.250111    0.645978
     17          1           0        2.543564   -1.401197   -0.990372
     18          1           0        3.128006    1.281164    0.492612
     19          1           0        2.346298    1.114935   -1.140246
 ---------------------------------------------------------------------

 SCF Done:  E(RB3LYP) =  -423.189348491     A.U. after    1 cycles

 The electronic state is 1-A.
 Alpha  occ. eigenvalues --  -19.15019 -19.13881 -10.27301 -10.23782 -10.23762
 Alpha  occ. eigenvalues --  -10.20301 -10.20082 -10.19032 -10.18770  -1.05728
 Alpha  occ. eigenvalues --   -1.04025  -0.86610  -0.77667  -0.73631  -0.63195
 Alpha  occ. eigenvalues --   -0.60377  -0.59257  -0.55093  -0.50766  -0.49340
 Alpha  occ. eigenvalues --   -0.47707  -0.45814  -0.45258  -0.42548  -0.40890
 Alpha  occ. eigenvalues --   -0.39482  -0.38201  -0.36753  -0.34878  -0.34565
 Alpha  occ. eigenvalues --   -0.30221  -0.29165  -0.27107  -0.23649
 Alpha virt. eigenvalues --   -0.02417   0.08748   0.09300   0.10271   0.11575
 Alpha virt. eigenvalues --    0.13219   0.13329   0.14296   0.15533   0.16606
 Alpha virt. eigenvalues --    0.17268   0.18153   0.20778   0.22337   0.23707

 Mulliken charges:
               1
     1  O   -0.301035
     2  C    0.358153
     3  C   -0.184291
     4  O   -0.249021
     5  C   -0.109242
     6  C   -0.133441
     7  C    0.030470
     8  C   -0.285789
     9  C   -0.255973
    10  H    0.119670
    11  H    0.138827
    12  H    0.094626
    13  H    0.120597
    14  H    0.106892
    15  H    0.086448
    16  H    0.114954
    17  H    0.110940
    18  H    0.117805
    19  H    0.119409
 Sum of Mulliken charges =   0.00000

 Dipole moment (field-independent basis, Debye):
    X=              0.8041    Y=             -1.5767    Z=              0.2264  Tot=              1.7843
 Quadrupole moment (field-independent basis, Debye-Ang):
   XX=            -53.2913   YY=            -59.6886   ZZ=            -50.3387
   XY=             -2.5957   XZ=             -0.0747   YZ=             -0.5387

  Exact polarizability:  87.631  -2.773  76.681  -0.926   0.231  61.756
 Approx polarizability: 109.895  -0.772 118.159  -0.835   2.052  96.752

                      1                      2                      3
                      A                      A                      A
 Frequencies --     63.1163                83.7177               144.1841
 Red. masses --      3.2440                 2.8383                 3.0252
 Frc consts  --      0.0076                 0.0117                 0.0371
 IR Inten    --      0.6396                 1.3191                 1.0610

                      4                      5                      6
                      A                      A                      A
 Frequencies --    190.1536               268.7248               311.2574
 Red. masses --      3.4827                 2.2609                 3.8011
 Frc consts  --      0.0742                 0.0962                 0.2170
 IR Inten    --     10.4084                 0.9628                 3.3744

                      7                      8                      9
                      A                      A                      A
 Frequencies --    387.6243               475.6560               552.1881
 Red. masses --      3.5443                 3.1783                 3.5185
 Frc consts  --      0.3138                 0.4237                 0.6321
 IR Inten    --      0.3077                10.6745                 3.6681

                     10                     11                     12
                      A                      A                      A
 Frequencies --    592.2369               663.7632               740.6563
 Red. masses --      3.2877                 4.5876                 2.2248
 Frc consts  --      0.6794                 1.1909                 0.7191
 IR Inten    --      3.1955                10.9838                 5.2539

                     13                     14                     15
                      A                      A                      A
 Frequencies --    784.8894               830.6214               881.7046
 Red. masses --      1.1576                 1.2770                 2.8755
 Frc consts  --      0.4202                 0.5191                 1.3171
 IR Inten    --      0.6133                 6.4696                 1.8962

                     16                     17                     18
                      A                      A                      A
 Frequencies --    920.1238               938.6246               956.7749
 Red. masses --      2.8281                 2.0241                 3.2083
 Frc consts  --      1.4107                 1.0506                 1.7304
 IR Inten    --      2.1075                 8.0261                37.6360

                     19                     20                     21
                      A                      A                      A
 Frequencies --    983.6812              1022.0588              1062.2482
 Red. masses --      1.5650                 2.2891                 1.3550
 Frc consts  --      0.8922                 1.4089                 0.9008
 IR Inten    --      5.3566                14.8358                 3.7491

                     22                     23                     24
                      A                      A                      A
 Frequencies --   1077.4991              1088.3764              1092.2666
 Red. masses --      1.5662                 2.9649                 5.0142
 Frc consts  --      1.0713                 2.0693                 3.5246
 IR Inten    --      1.8001                 4.2494                33.0539

                     25                     26                     27
                      A                      A                      A
 Frequencies --   1133.6817              1143.3313              1195.0411
 Red. masses --      1.1271                 2.7429                 1.6863
 Frc consts  --      0.8535                 2.1125                 1.4189
 IR Inten    --      0.4353                76.2799                10.8725

                     28                     29                     30
                      A                      A                      A
 Frequencies --   1197.7872              1212.3786              1227.7535
 Red. masses --      1.5989                 1.4133                 1.5866
 Frc consts  --      1.3516                 1.2239                 1.4091
 IR Inten    --      8.3470                10.1735                 1.8840

                     31                     32                     33
                      A                      A                      A
 Frequencies --   1239.7206              1272.1452              1286.8336
 Red. masses --      1.5539                 1.3558                 1.2260
 Frc consts  --      1.4070                 1.2928                 1.1961
 IR Inten    --      9.4138                 1.3801                 1.6849

                     34                     35                     36
                      A                      A                      A
 Frequencies --   1325.6514              1386.7118              1423.7089
 Red. masses --      1.3645                 1.3533                 1.7423
 Frc consts  --      1.4128                 1.5333                 2.0807
 IR Inten    --      3.2542                 4.7426                 9.5310

                     37                     38                     39
                      A                      A                      A
 Frequencies --   1471.9605              1475.7162              1507.4293
 Red. masses --      1.0866                 1.0823                 1.3918
 Frc consts  --      1.3871                 1.3887                 1.8634
 IR Inten    --      1.5735                 5.7383                 1.8960

                     40                     41                     42
                      A                      A                      A
 Frequencies --   1516.4205              1858.0883              2964.4565
 Red. masses --      1.0939                12.8799                 1.0702
 Frc consts  --      1.4820                26.1996                 5.5412
 IR Inten    --      1.6487               160.9688                35.6517

                     43                     44                     45
                      A                      A                      A
 Frequencies --   2970.9346              3009.5727              3087.3462
 Red. masses --      1.0720                 1.0807                 1.0903
 Frc consts  --      5.5749                 5.7671                 6.1229
 IR Inten    --     49.5411                14.2817                13.3016

                     46                     47                     48
                      A                      A                      A
 Frequencies --   3110.5668              3130.9667              3136.0844
 Red. masses --      1.0930                 1.0536                 1.0835
 Frc consts  --      6.2311                 6.0856                 6.2787
 IR Inten    --     19.9911                17.7327                13.9422

                     49                     50                     51
                      A                      A                      A
 Frequencies --   3142.7795              3211.1678              3228.6264
 Red. masses --      1.0606                 1.1175                 1.1156
 Frc consts  --      6.1721                 6.7893                 6.8518
 IR Inten    --      6.4951                 2.3289                16.0037

 - Thermochemistry -
 -------------------
 Temperature   298.150 Kelvin.  Pressure   1.00000 Atm.
 Atom     1 has atomic number  8 and mass  15.99491

 Molecular mass:   126.06808 amu.
 Principal axes and moments of inertia in atomic units:
                           1         2         3
     Eigenvalues --   604.770481458.287541955.02024
           X            0.99994  -0.01002  -0.00411
           Y            0.00999   0.99993  -0.00551
           Z            0.00416   0.00547   0.99998
 This molecule is an asymmetric top.
 Rotational symmetry number  1.
 Warning -- assumption of classical behavior for rotation
           may cause significant error
 Rotational temperatures (Kelvin)      0.14322     0.05939     0.04430
 Rotational constants (GHZ):           2.98418     1.23758     0.92313
 Zero-point vibrational energy     418567.4 (Joules/Mol)
                                  100.04002 (Kcal/Mol)
 Warning -- explicit consideration of  10 degrees of freedom as
           vibrations may cause significant error
 Vibrational temperatures:     90.81   120.45   207.45   273.59   386.63
          (Kelvin)            447.83   557.70   684.36   794.47   852.10
                              955.01  1065.64  1129.28  1195.08  1268.57
                             1323.85  1350.47  1376.58  1415.30  1470.51
                             1528.34  1550.28  1565.93  1571.53  1631.11
                             1645.00  1719.40  1723.35  1744.34  1766.46
                             1783.68  1830.33  1851.46  1907.31  1995.17
                             2048.40  2117.82  2123.22  2168.85  2181.79
                             2673.37  4265.19  4274.51  4330.10  4442.00
                             4475.41  4504.76  4512.12  4521.75  4620.15
                             4645.27

 Zero-point correction=                           0.159424 (Hartree/Particle)
 Thermal correction to Energy=                    0.167794
 Thermal correction to Enthalpy=                  0.168738
 Thermal correction to Gibbs Free Energy=         0.125679
 Sum of electronic and zero-point Energies=           -423.029925
 Sum of electronic and thermal Energies=              -423.021554
 Sum of electronic and thermal Enthalpies=            -423.020610
 Sum of electronic and thermal Free Energies=         -423.063670

                     E (Thermal)             CV                S
                      KCal/Mol        Cal/Mol-Kelvin    Cal/Mol-Kelvin
 Total                  105.292             31.236             90.626
 Electronic               0.000              0.000              0.000
 Translational            0.889              2.981             40.409
 Rotational               0.889              2.981             28.935
 Vibrational            103.515             25.275             21.283
 Vibration     1          0.597              1.972              4.357
 Vibration     2          0.601              1.960              3.802
 Vibration     3          0.616              1.909              2.748
 Vibration     4          0.633              1.853              2.226
 Vibration     5          0.673              1.731              1.604
 Vibration     6          0.700              1.652              1.356
 Vibration     7          0.756              1.497              1.009
 Vibration     8          0.832              1.304              0.722
 Vibration     9          0.908              1.135              0.540
 Vibration    10          0.950              1.048              0.463

 Optimization completed.
    -- Stationary point found.
 Normal termination of Gaussian 09 at Mon Jan 27 13:50:50 2020.
