 Gaussian 09, Revision D.01,
 Gaussian 09:  ES64L-G09RevD.01 24-Apr-2013

 -----------------------------
 # b3lyp 6-31G(2df,p) opt Freq
 -----------------------------

 -----
 titel
 -----
 Symbolic Z-matrix:
 Charge =  0 Multiplicity = 1

 SCF Done:  E(RB3LYP) =  -423.127754241     A.U. after   14 cycles
 Optimization completed.
    -- Stationary point found.
 Normal termination of Gaussian 09 at Tue Jan 28 08:11:39 2020.

 ----------------------------------------------------------------------
 #N Geom=AllCheck Guess=TCheck SCRF=Check GenChk RB3LYP/6-31G(2df,p) Fr
 eq
 ----------------------------------------------------------------------

 Structure from the checkpoint file:  "/scratch/puck/g09_a8e178dc-746f-43b6-b150-9aff73fc8668/Gau-54952.chk"
 -----
 titel
 -----
 Charge =  0 Multiplicity = 1

                         Standard orientation:
 ---------------------------------------------------------------------
 Center     Atomic      Atomic             Coordinates (Angstroms)
 Number     Number       Type             X           Y           Z
 ---------------------------------------------------------------------
      1          8           0        1.926455   -1.102245   -0.637160
      2          6           0        1.255216   -0.593265    0.519049
      3          6           0        1.473451    0.919045    0.543009
      4          6           0        0.532084    1.630941   -0.439759
      5          6           0       -0.857832    1.001654   -0.400494
      6          6           0       -1.301248    0.159751    0.836333
      7          8           0       -2.277381   -0.541697   -0.019663
      8          6           0       -1.024619   -0.486072   -0.805900
      9          6           0       -0.238189   -0.916450    0.459892
     10          1           0        1.719218   -2.039285   -0.715171
     11          1           0        1.693933   -1.036534    1.426436
     12          1           0        1.266934    1.270383    1.561081
     13          1           0        2.523406    1.138517    0.330152
     14          1           0        0.470708    2.696963   -0.196130
     15          1           0        0.925156    1.566471   -1.460930
     16          1           0       -1.655697    1.635776   -0.792636
     17          1           0       -1.641873    0.481894    1.821530
     18          1           0       -1.029842   -0.935627   -1.799214
     19          1           0       -0.497704   -1.920646    0.806680
 ---------------------------------------------------------------------

 SCF Done:  E(RB3LYP) =  -423.127754241     A.U. after    1 cycles

 The electronic state is 1-A.
 Alpha  occ. eigenvalues --  -19.13808 -19.12777 -10.24544 -10.24177 -10.23403
 Alpha  occ. eigenvalues --  -10.19386 -10.19361 -10.18291 -10.18240  -1.05365
 Alpha  occ. eigenvalues --   -1.01836  -0.82805  -0.74521  -0.72965  -0.64894
 Alpha  occ. eigenvalues --   -0.62212  -0.59992  -0.52983  -0.51838  -0.48573
 Alpha  occ. eigenvalues --   -0.47066  -0.44223  -0.43504  -0.39845  -0.38852
 Alpha  occ. eigenvalues --   -0.37446  -0.36550  -0.35744  -0.32752  -0.31242
 Alpha  occ. eigenvalues --   -0.30484  -0.30136  -0.27359  -0.23035
 Alpha virt. eigenvalues --    0.06278   0.08781   0.11004   0.12591   0.12763
 Alpha virt. eigenvalues --    0.13356   0.13700   0.14102   0.15047   0.16198
 Alpha virt. eigenvalues --    0.17182   0.17506   0.19480   0.21004   0.21604

 Mulliken charges:
               1
     1  O   -0.437526
     2  C    0.096236
     3  C   -0.218520
     4  C   -0.247576
     5  C    0.004498
     6  C    0.011572
     7  O   -0.315676
     8  C    0.053362
     9  C   -0.045739
    10  H    0.282519
    11  H    0.063062
    12  H    0.098881
    13  H    0.107994
    14  H    0.099039
    15  H    0.116391
    16  H    0.079060
    17  H    0.088149
    18  H    0.090311
    19  H    0.073962
 Sum of Mulliken charges =   0.00000

 Dipole moment (field-independent basis, Debye):
    X=              1.1877    Y=             -0.0063    Z=              0.7079  Tot=              1.3826
 Quadrupole moment (field-independent basis, Debye-Ang):
   XX=            -62.5004   YY=            -48.3048   ZZ=            -50.8560
   XY=             -2.6639   XZ=              1.2330   YZ=              0.9610

  Exact polarizability:  75.950  -0.035  75.652   0.143   0.299  69.573
 Approx polarizability: 109.142   0.564 109.030  -2.664   2.722 110.114

                      1                      2                      3
                      A                      A                      A
 Frequencies --    134.3277               178.2198               288.4486
 Red. masses --      3.6524                 3.0484                 1.2593
 Frc consts  --      0.0388                 0.0570                 0.0617
 IR Inten    --      1.6474                 2.8444                67.3436

                      4                      5                      6
                      A                      A                      A
 Frequencies --    311.2200               369.0393               432.1853
 Red. masses --      1.8250                 2.6537                 4.7388
 Frc consts  --      0.1041                 0.2129                 0.5215
 IR Inten    --     47.2967                 2.9396                 3.0405

                      7                      8                      9
                      A                      A                      A
 Frequencies --    473.4618               527.3905               619.2320
 Red. masses --      4.6683                 4.3189                 4.2777
 Frc consts  --      0.6166                 0.7078                 0.9664
 IR Inten    --      4.0860                 3.9374                 2.5874

                     10                     11                     12
                      A                      A                      A
 Frequencies --    724.3451               738.4322               790.8998
 Red. masses --      2.2545                 4.1772                 3.0783
 Frc consts  --      0.6969                 1.3420                 1.1345
 IR Inten    --      2.4895                 6.5470                 1.0396

                     13                     14                     15
                      A                      A                      A
 Frequencies --    845.4743               860.8100               880.7082
 Red. masses --      3.1715                 2.4654                 2.5096
 Frc consts  --      1.3357                 1.0763                 1.1469
 IR Inten    --      8.8605                 4.4340                20.6289

                     16                     17                     18
                      A                      A                      A
 Frequencies --    894.0908               918.0075               970.9118
 Red. masses --      3.1642                 2.9528                 1.8727
 Frc consts  --      1.4903                 1.4662                 1.0401
 IR Inten    --      2.6625                26.5113                13.1017

                     19                     20                     21
                      A                      A                      A
 Frequencies --    992.1249              1016.8286              1031.9921
 Red. masses --      1.6666                 3.1414                 1.4193
 Frc consts  --      0.9665                 1.9137                 0.8906
 IR Inten    --     17.9491                10.8378                16.4022

                     22                     23                     24
                      A                      A                      A
 Frequencies --   1063.0196              1089.8973              1103.5643
 Red. masses --      2.9978                 1.6910                 1.6585
 Frc consts  --      1.9959                 1.1835                 1.1900
 IR Inten    --     13.9127                13.5405                 1.5510

                     25                     26                     27
                      A                      A                      A
 Frequencies --   1148.1028              1155.7049              1177.0920
 Red. masses --      1.3471                 2.3142                 1.2652
 Frc consts  --      1.0462                 1.8211                 1.0328
 IR Inten    --      0.2759                 2.1865                 2.0640

                     28                     29                     30
                      A                      A                      A
 Frequencies --   1197.2979              1202.4731              1236.1517
 Red. masses --      1.6459                 1.4061                 1.3803
 Frc consts  --      1.3902                 1.1978                 1.2427
 IR Inten    --     28.7452                 7.6768                16.0675

                     31                     32                     33
                      A                      A                      A
 Frequencies --   1254.5264              1273.2835              1281.1605
 Red. masses --      1.4019                 1.6331                 1.2625
 Frc consts  --      1.2999                 1.5600                 1.2209
 IR Inten    --     14.0151                 5.0501                16.3098

                     34                     35                     36
                      A                      A                      A
 Frequencies --   1327.7389              1358.4877              1373.6816
 Red. masses --      1.4269                 1.6531                 1.3402
 Frc consts  --      1.4820                 1.7975                 1.4900
 IR Inten    --      5.9398                 0.7321                16.6530

                     37                     38                     39
                      A                      A                      A
 Frequencies --   1382.7020              1393.0227              1435.9806
 Red. masses --      1.5831                 1.7025                 1.5703
 Frc consts  --      1.7833                 1.9465                 1.9077
 IR Inten    --      1.7664                 0.6999                11.7006

                     40                     41                     42
                      A                      A                      A
 Frequencies --   1478.4924              1494.1027              2972.7354
 Red. masses --      1.0848                 1.1026                 1.0835
 Frc consts  --      1.3971                 1.4502                 5.6416
 IR Inten    --      4.1830                 3.8842                57.6396

                     43                     44                     45
                      A                      A                      A
 Frequencies --   3036.9552              3038.6676              3073.3041
 Red. masses --      1.0611                 1.0663                 1.0991
 Frc consts  --      5.7660                 5.8009                 6.1164
 IR Inten    --     29.9612                21.0071                29.9302

                     46                     47                     48
                      A                      A                      A
 Frequencies --   3076.6106              3094.6579              3095.6183
 Red. masses --      1.0861                 1.0860                 1.1002
 Frc consts  --      6.0571                 6.1276                 6.2118
 IR Inten    --     32.5157                33.6118                21.8244

                     49                     50                     51
                      A                      A                      A
 Frequencies --   3105.7430              3117.6978              3812.2075
 Red. masses --      1.0906                 1.0960                 1.0662
 Frc consts  --      6.1977                 6.2765                 9.1298
 IR Inten    --     86.0745                18.6521                16.9551

 - Thermochemistry -
 -------------------
 Temperature   298.150 Kelvin.  Pressure   1.00000 Atm.
 Atom     1 has atomic number  8 and mass  15.99491

 Molecular mass:   126.06808 amu.
 Principal axes and moments of inertia in atomic units:
                           1         2         3
     Eigenvalues --   616.243921093.556381342.57394
           X            0.99993   0.00344   0.01144
           Y           -0.00332   0.99994  -0.01042
           Z           -0.01148   0.01039   0.99988
 This molecule is an asymmetric top.
 Rotational symmetry number  1.
 Warning -- assumption of classical behavior for rotation
           may cause significant error
 Rotational temperatures (Kelvin)      0.14055     0.07920     0.06451
 Rotational constants (GHZ):           2.92862     1.65034     1.34424
 Zero-point vibrational energy     423770.1 (Joules/Mol)
                                  101.28349 (Kcal/Mol)
 Warning -- explicit consideration of   9 degrees of freedom as
           vibrations may cause significant error
 Vibrational temperatures:    193.27   256.42   415.01   447.78   530.96
          (Kelvin)            621.82   681.21   758.80   890.94  1042.17
                             1062.44  1137.93  1216.45  1238.51  1267.14
                             1286.40  1320.81  1396.92  1427.44  1462.99
                             1484.80  1529.45  1568.12  1587.78  1651.86
                             1662.80  1693.57  1722.64  1730.09  1778.54
                             1804.98  1831.97  1843.30  1910.32  1954.56
                             1976.42  1989.40  2004.25  2066.05  2127.22
                             2149.68  4277.10  4369.50  4371.96  4421.79
                             4426.55  4452.52  4453.90  4468.47  4485.67
                             5484.91

 Zero-point correction=                           0.161406 (Hartree/Particle)
 Thermal correction to Energy=                    0.168570
 Thermal correction to Enthalpy=                  0.169514
 Thermal correction to Gibbs Free Energy=         0.130062
 Sum of electronic and zero-point Energies=           -422.966349
 Sum of electronic and thermal Energies=              -422.959184
 Sum of electronic and thermal Enthalpies=            -422.958240
 Sum of electronic and thermal Free Energies=         -422.997693

                     E (Thermal)             CV                S
                      KCal/Mol        Cal/Mol-Kelvin    Cal/Mol-Kelvin
 Total                  105.779             29.379             83.035
 Electronic               0.000              0.000              0.000
 Translational            0.889              2.981             40.409
 Rotational               0.889              2.981             28.294
 Vibrational            104.002             23.417             14.332
 Vibration     1          0.613              1.919              2.883
 Vibration     2          0.629              1.869              2.347
 Vibration     3          0.685              1.695              1.483
 Vibration     4          0.700              1.652              1.356
 Vibration     5          0.741              1.536              1.084
 Vibration     6          0.793              1.400              0.852
 Vibration     7          0.830              1.309              0.728
 Vibration     8          0.882              1.189              0.593
 Vibration     9          0.979              0.991              0.418

 Optimization completed.
    -- Stationary point found.
 Normal termination of Gaussian 09 at Tue Jan 28 09:01:55 2020.
