 Gaussian 09, Revision D.01,
 Gaussian 09:  ES64L-G09RevD.01 24-Apr-2013

 -----------------------------
 # b3lyp 6-31G(2df,p) opt Freq
 -----------------------------

 -----
 titel
 -----
 Symbolic Z-matrix:
 Charge =  0 Multiplicity = 1

 SCF Done:  E(RB3LYP) =  -423.153880812     A.U. after   14 cycles
 Optimization completed.
    -- Stationary point found.
 Normal termination of Gaussian 09 at Tue Jan 28 03:56:04 2020.

 ----------------------------------------------------------------------
 #N Geom=AllCheck Guess=TCheck SCRF=Check GenChk RB3LYP/6-31G(2df,p) Fr
 eq
 ----------------------------------------------------------------------

 Structure from the checkpoint file:  "/scratch/puck/g09_f3c4bafa-96dd-4084-baf9-3dcba240b8ac/Gau-114943.chk"
 -----
 titel
 -----
 Charge =  0 Multiplicity = 1

                         Standard orientation:
 ---------------------------------------------------------------------
 Center     Atomic      Atomic             Coordinates (Angstroms)
 Number     Number       Type             X           Y           Z
 ---------------------------------------------------------------------
      1          6           0        2.792772   -0.633934    0.191574
      2          6           0        1.532126   -0.276887   -0.575930
      3          6           0        0.255908   -1.069736   -0.176153
      4          6           0       -0.758311    0.043577    0.221762
      5          8           0       -0.683483    0.314480    1.620096
      6          6           0       -0.173771    1.241717   -0.558635
      7          8           0        1.217888    1.105807   -0.329904
      8          6           0       -2.141565   -0.261305   -0.117161
      9          6           0       -3.271220   -0.506699   -0.443445
     10          1           0        2.624899   -0.552634    1.270428
     11          1           0        3.096381   -1.661131   -0.031982
     12          1           0        3.612367    0.035914   -0.083097
     13          1           0        1.711627   -0.397590   -1.655231
     14          1           0       -0.120955   -1.668513   -1.007370
     15          1           0        0.415043   -1.727319    0.680782
     16          1           0        0.174963    0.735770    1.758153
     17          1           0       -0.421599    1.175801   -1.628949
     18          1           0       -0.509238    2.200843   -0.159901
     19          1           0       -4.274356   -0.723834   -0.716442
 ---------------------------------------------------------------------

 SCF Done:  E(RB3LYP) =  -423.153880812     A.U. after    1 cycles

 The electronic state is 1-A.
 Alpha  occ. eigenvalues --  -19.15092 -19.13894 -10.26301 -10.24133 -10.23379
 Alpha  occ. eigenvalues --  -10.18885 -10.18367 -10.18326 -10.17842  -1.05586
 Alpha  occ. eigenvalues --   -1.01689  -0.79600  -0.77933  -0.72994  -0.68258
 Alpha  occ. eigenvalues --   -0.62849  -0.58699  -0.53561  -0.51945  -0.49797
 Alpha  occ. eigenvalues --   -0.47939  -0.46325  -0.43942  -0.42190  -0.39314
 Alpha  occ. eigenvalues --   -0.37897  -0.37334  -0.36577  -0.33540  -0.32966
 Alpha  occ. eigenvalues --   -0.29034  -0.27906  -0.27485  -0.24827
 Alpha virt. eigenvalues --    0.03829   0.04832   0.07723   0.10677   0.11641
 Alpha virt. eigenvalues --    0.12331   0.12601   0.13703   0.14902   0.16508
 Alpha virt. eigenvalues --    0.17115   0.17234   0.18401   0.19372   0.23026

 Mulliken charges:
               1
     1  C   -0.404402
     2  C    0.134099
     3  C   -0.303072
     4  C    0.179348
     5  O   -0.472707
     6  C   -0.137873
     7  O   -0.275792
     8  C    0.317317
     9  C   -0.427501
    10  H    0.119039
    11  H    0.122531
    12  H    0.130013
    13  H    0.076319
    14  H    0.116003
    15  H    0.122591
    16  H    0.284964
    17  H    0.098740
    18  H    0.124424
    19  H    0.195957
 Sum of Mulliken charges =   0.00000

 Dipole moment (field-independent basis, Debye):
    X=              0.8453    Y=             -0.7108    Z=             -1.3002  Tot=              1.7060
 Quadrupole moment (field-independent basis, Debye-Ang):
   XX=            -49.7798   YY=            -53.0721   ZZ=            -54.3671
   XY=             -1.4354   XZ=              4.1737   YZ=              1.2510

  Exact polarizability: 103.040   1.607  65.383   6.101   1.389  64.182
 Approx polarizability: 141.031   8.048  96.438  11.436   4.412  98.928

                      1                      2                      3
                      A                      A                      A
 Frequencies --     50.0181               134.2370               164.1948
 Red. masses --      3.0715                 3.7259                 4.1821
 Frc consts  --      0.0045                 0.0396                 0.0664
 IR Inten    --      0.5815                 0.4163                 0.3395

                      4                      5                      6
                      A                      A                      A
 Frequencies --    219.0124               244.7910               320.9305
 Red. masses --      2.3819                 1.2881                 2.7112
 Frc consts  --      0.0673                 0.0455                 0.1645
 IR Inten    --      9.2999                 3.0800                 0.5835

                      7                      8                      9
                      A                      A                      A
 Frequencies --    383.2049               407.1622               421.8838
 Red. masses --      2.3144                 3.0635                 1.0830
 Frc consts  --      0.2002                 0.2992                 0.1136
 IR Inten    --      1.3763                 0.2154                74.7726

                     10                     11                     12
                      A                      A                      A
 Frequencies --    444.5331               512.4025               532.6327
 Red. masses --      2.9237                 3.6294                 4.7265
 Frc consts  --      0.3404                 0.5614                 0.7900
 IR Inten    --      0.6926                 4.8864                 8.8381

                     13                     14                     15
                      A                      A                      A
 Frequencies --    581.0859               625.5303               665.5008
 Red. masses --      5.5048                 1.2485                 4.3228
 Frc consts  --      1.0952                 0.2878                 1.1280
 IR Inten    --      2.8863                36.6649                15.1721

                     16                     17                     18
                      A                      A                      A
 Frequencies --    673.9200               808.3190               822.8970
 Red. masses --      1.2783                 3.8506                 3.3322
 Frc consts  --      0.3421                 1.4823                 1.3295
 IR Inten    --     35.4733                 8.0115                10.3202

                     19                     20                     21
                      A                      A                      A
 Frequencies --    891.9059               901.4926               955.7445
 Red. masses --      1.6792                 2.1442                 2.2916
 Frc consts  --      0.7870                 1.0267                 1.2333
 IR Inten    --      5.6620                 4.4701                29.3926

                     22                     23                     24
                      A                      A                      A
 Frequencies --   1011.0949              1042.4796              1061.3465
 Red. masses --      1.7635                 2.0078                 4.2858
 Frc consts  --      1.0622                 1.2856                 2.8444
 IR Inten    --     14.4452                 7.6764                61.7127

                     25                     26                     27
                      A                      A                      A
 Frequencies --   1102.5573              1124.8711              1147.3164
 Red. masses --      3.6912                 2.1714                 2.1343
 Frc consts  --      2.6438                 1.6188                 1.6553
 IR Inten    --     59.7812                31.3813                22.6723

                     28                     29                     30
                      A                      A                      A
 Frequencies --   1167.5902              1234.6235              1252.8923
 Red. masses --      2.5838                 1.5007                 1.2832
 Frc consts  --      2.0754                 1.3478                 1.1868
 IR Inten    --     38.3503                 9.7476                46.7067

                     31                     32                     33
                      A                      A                      A
 Frequencies --   1276.9381              1328.3166              1366.6527
 Red. masses --      1.3803                 1.2142                 1.3237
 Frc consts  --      1.3260                 1.2623                 1.4566
 IR Inten    --     12.6730                 7.3275                21.1713

                     34                     35                     36
                      A                      A                      A
 Frequencies --   1389.3827              1409.7289              1418.0814
 Red. masses --      1.3076                 1.5237                 1.5512
 Frc consts  --      1.4872                 1.7841                 1.8378
 IR Inten    --      8.2433                35.0337                32.3442

                     37                     38                     39
                      A                      A                      A
 Frequencies --   1480.8283              1486.4250              1495.5049
 Red. masses --      1.0810                 1.0528                 1.0513
 Frc consts  --      1.3966                 1.3705                 1.3853
 IR Inten    --      5.0054                 2.9164                 1.9471

                     40                     41                     42
                      A                      A                      A
 Frequencies --   1504.9151              2245.1812              2980.1629
 Red. masses --      1.0991                 5.9259                 1.0836
 Frc consts  --      1.4666                17.5998                 5.6703
 IR Inten    --      3.4187                 0.6596                40.2450

                     43                     44                     45
                      A                      A                      A
 Frequencies --   2994.1669              3039.4062              3077.0217
 Red. masses --      1.0689                 1.0351                 1.0595
 Frc consts  --      5.6458                 5.6341                 5.9104
 IR Inten    --     52.0397                14.9173                10.8493

                     46                     47                     48
                      A                      A                      A
 Frequencies --   3112.2266              3119.9371              3120.1787
 Red. masses --      1.1016                 1.1011                 1.0972
 Frc consts  --      6.2864                 6.3152                 6.2938
 IR Inten    --     25.2606                11.8586                22.8271

                     49                     50                     51
                      A                      A                      A
 Frequencies --   3130.1391              3501.8484              3768.7992
 Red. masses --      1.1070                 1.1630                 1.0652
 Frc consts  --      6.3903                 8.4028                 8.9147
 IR Inten    --     14.5834                69.2620                23.3272

 - Thermochemistry -
 -------------------
 Temperature   298.150 Kelvin.  Pressure   1.00000 Atm.
 Atom     1 has atomic number  6 and mass  12.00000

 Molecular mass:   126.06808 amu.
 Principal axes and moments of inertia in atomic units:
                           1         2         3
     Eigenvalues --   524.207211655.618821697.64479
           X            0.99972  -0.01935   0.01377
           Y            0.01935   0.99981   0.00029
           Z           -0.01377  -0.00002   0.99991
 This molecule is an asymmetric top.
 Rotational symmetry number  1.
 Warning -- assumption of classical behavior for rotation
           may cause significant error
 Rotational temperatures (Kelvin)      0.16523     0.05232     0.05102
 Rotational constants (GHZ):           3.44280     1.09007     1.06309
 Zero-point vibrational energy     413620.9 (Joules/Mol)
                                   98.85776 (Kcal/Mol)
 Warning -- explicit consideration of  13 degrees of freedom as
           vibrations may cause significant error
 Vibrational temperatures:     71.96   193.14   236.24   315.11   352.20
          (Kelvin)            461.75   551.35   585.81   607.00   639.58
                              737.23   766.34   836.05   900.00   957.51
                              969.62  1162.99  1183.96  1283.25  1297.05
                             1375.10  1454.74  1499.89  1527.04  1586.33
                             1618.44  1650.73  1679.90  1776.35  1802.63
                             1837.23  1911.15  1966.31  1999.01  2028.28
                             2040.30  2130.58  2138.63  2151.70  2165.23
                             3230.31  4287.78  4307.93  4373.02  4427.14
                             4477.79  4488.89  4489.24  4503.57  5038.37
                             5422.45

 Zero-point correction=                           0.157540 (Hartree/Particle)
 Thermal correction to Energy=                    0.166672
 Thermal correction to Enthalpy=                  0.167617
 Thermal correction to Gibbs Free Energy=         0.123729
 Sum of electronic and zero-point Energies=           -422.996341
 Sum of electronic and thermal Energies=              -422.987208
 Sum of electronic and thermal Enthalpies=            -422.986264
 Sum of electronic and thermal Free Energies=         -423.030151

                     E (Thermal)             CV                S
                      KCal/Mol        Cal/Mol-Kelvin    Cal/Mol-Kelvin
 Total                  104.588             35.048             92.368
 Electronic               0.000              0.000              0.000
 Translational            0.889              2.981             40.409
 Rotational               0.889              2.981             28.779
 Vibrational            102.811             29.086             23.181
 Vibration     1          0.595              1.978              4.817
 Vibration     2          0.613              1.919              2.884
 Vibration     3          0.623              1.886              2.501
 Vibration     4          0.647              1.812              1.967
 Vibration     5          0.660              1.771              1.768
 Vibration     6          0.706              1.633              1.305
 Vibration     7          0.752              1.506              1.026
 Vibration     8          0.772              1.455              0.937
 Vibration     9          0.784              1.423              0.886
 Vibration    10          0.804              1.373              0.812
 Vibration    11          0.867              1.223              0.628
 Vibration    12          0.888              1.178              0.581
 Vibration    13          0.938              1.072              0.483

 Optimization completed.
    -- Stationary point found.
 Normal termination of Gaussian 09 at Tue Jan 28 04:37:42 2020.
