 Gaussian 09, Revision D.01,
 Gaussian 09:  ES64L-G09RevD.01 24-Apr-2013

 -----------------------------
 # b3lyp 6-31G(2df,p) opt Freq
 -----------------------------

 -----
 titel
 -----
 Symbolic Z-matrix:
 Charge =  0 Multiplicity = 1

 SCF Done:  E(RB3LYP) =  -423.178627173     A.U. after   14 cycles
 Optimization completed.
    -- Stationary point found.
 Normal termination of Gaussian 09 at Mon Jan 27 22:08:57 2020.

 ----------------------------------------------------------------------
 #N Geom=AllCheck Guess=TCheck SCRF=Check GenChk RB3LYP/6-31G(2df,p) Fr
 eq
 ----------------------------------------------------------------------

 Structure from the checkpoint file:  "/scratch/puck/g09_75bc91d1-7099-4c29-92f9-8d63bd63f307/Gau-51170.chk"
 -----
 titel
 -----
 Charge =  0 Multiplicity = 1

                         Standard orientation:
 ---------------------------------------------------------------------
 Center     Atomic      Atomic             Coordinates (Angstroms)
 Number     Number       Type             X           Y           Z
 ---------------------------------------------------------------------
      1          6           0        0.948572    1.876520    0.832135
      2          6           0        0.528945    0.952292   -0.301241
      3          6           0        1.227290   -0.413537   -0.463456
      4          8           0        2.374630   -0.753461   -0.506937
      5          6           0       -0.104551   -1.175553   -0.531146
      6          6           0       -0.593647   -1.562160    0.881041
      7          8           0       -1.132774   -0.243992    1.114938
      8          6           0       -0.831035    0.185341   -0.239555
      9          6           0       -2.036102    0.733111   -0.956220
     10          1           0        0.423241    2.835192    0.781288
     11          1           0        0.723068    1.415594    1.796825
     12          1           0        2.023262    2.073687    0.780085
     13          1           0        0.602140    1.463131   -1.272898
     14          1           0       -0.292622   -1.853583   -1.362531
     15          1           0       -1.385045   -2.321463    0.877580
     16          1           0        0.172845   -1.844575    1.611060
     17          1           0       -2.382676    1.648995   -0.464890
     18          1           0       -1.797153    0.974165   -1.996867
     19          1           0       -2.858733    0.012396   -0.943005
 ---------------------------------------------------------------------

 SCF Done:  E(RB3LYP) =  -423.178627173     A.U. after    1 cycles

 The electronic state is 1-A.
 Alpha  occ. eigenvalues --  -19.14245 -19.13921 -10.26978 -10.25064 -10.24526
 Alpha  occ. eigenvalues --  -10.20018 -10.19701 -10.18812 -10.18063  -1.05480
 Alpha  occ. eigenvalues --   -1.04284  -0.83489  -0.75555  -0.74157  -0.67963
 Alpha  occ. eigenvalues --   -0.61567  -0.56322  -0.52398  -0.49322  -0.48006
 Alpha  occ. eigenvalues --   -0.46862  -0.44734  -0.42705  -0.42339  -0.40934
 Alpha  occ. eigenvalues --   -0.39796  -0.39340  -0.37795  -0.36204  -0.34879
 Alpha  occ. eigenvalues --   -0.31869  -0.29969  -0.25700  -0.24056
 Alpha virt. eigenvalues --   -0.02553   0.06803   0.09207   0.11535   0.12108
 Alpha virt. eigenvalues --    0.12894   0.14040   0.14352   0.14570   0.16914
 Alpha virt. eigenvalues --    0.17442   0.17963   0.18756   0.20090   0.21646

 Mulliken charges:
               1
     1  C   -0.415826
     2  C   -0.150945
     3  C    0.402192
     4  O   -0.306085
     5  C   -0.274247
     6  C   -0.092051
     7  O   -0.321700
     8  C    0.426445
     9  C   -0.478406
    10  H    0.119304
    11  H    0.138169
    12  H    0.134242
    13  H    0.102239
    14  H    0.101018
    15  H    0.112333
    16  H    0.120382
    17  H    0.134891
    18  H    0.120592
    19  H    0.127452
 Sum of Mulliken charges =   0.00000

 Dipole moment (field-independent basis, Debye):
    X=             -2.0800    Y=              0.3166    Z=             -1.0370  Tot=              2.3456
 Quadrupole moment (field-independent basis, Debye-Ang):
   XX=            -61.0547   YY=            -49.5845   ZZ=            -52.9718
   XY=              3.4384   XZ=              3.7529   YZ=             -1.5687

  Exact polarizability:  80.256   0.749  80.236   1.424  -1.716  65.733
 Approx polarizability: 118.232  -3.450 112.027  -2.353  -2.068  99.518

                      1                      2                      3
                      A                      A                      A
 Frequencies --     71.6741               176.1511               187.9767
 Red. masses --      4.1141                 1.6086                 1.5148
 Frc consts  --      0.0125                 0.0294                 0.0315
 IR Inten    --      4.1254                 1.2035                 1.0140

                      4                      5                      6
                      A                      A                      A
 Frequencies --    198.3451               208.5816               223.2577
 Red. masses --      2.4439                 1.0951                 3.0786
 Frc consts  --      0.0566                 0.0281                 0.0904
 IR Inten    --      0.4486                 0.8388                 1.7034

                      7                      8                      9
                      A                      A                      A
 Frequencies --    271.4891               335.3427               474.5486
 Red. masses --      3.3786                 2.9329                 4.2676
 Frc consts  --      0.1467                 0.1943                 0.5662
 IR Inten    --      3.3902                 3.0418                 3.9103

                     10                     11                     12
                      A                      A                      A
 Frequencies --    500.3078               594.0590               631.0155
 Red. masses --      3.4700                 4.6546                 3.1393
 Frc consts  --      0.5117                 0.9678                 0.7365
 IR Inten    --      1.9401                 4.5243                 1.7717

                     13                     14                     15
                      A                      A                      A
 Frequencies --    649.8423               748.8520               839.6477
 Red. masses --      3.8139                 2.4508                 2.3431
 Frc consts  --      0.9489                 0.8097                 0.9733
 IR Inten    --      0.4943                 3.5617                 2.8594

                     16                     17                     18
                      A                      A                      A
 Frequencies --    857.2978               898.4551               947.4219
 Red. masses --      2.1516                 2.2644                 1.6505
 Frc consts  --      0.9317                 1.0769                 0.8729
 IR Inten    --      7.8737                20.3673                14.5748

                     19                     20                     21
                      A                      A                      A
 Frequencies --    968.9282               997.5072              1033.2690
 Red. masses --      1.9522                 2.6009                 2.2015
 Frc consts  --      1.0798                 1.5248                 1.3848
 IR Inten    --      6.1504                41.0368                41.6248

                     22                     23                     24
                      A                      A                      A
 Frequencies --   1045.8724              1094.1983              1099.5411
 Red. masses --      2.3406                 2.0646                 2.2371
 Frc consts  --      1.5085                 1.4564                 1.5935
 IR Inten    --     23.0445                 5.6727                 7.6659

                     25                     26                     27
                      A                      A                      A
 Frequencies --   1118.3014              1161.1844              1170.7585
 Red. masses --      1.8222                 1.3187                 2.2526
 Frc consts  --      1.3426                 1.0476                 1.8192
 IR Inten    --     10.6945                 4.3333                 9.3237

                     28                     29                     30
                      A                      A                      A
 Frequencies --   1184.0800              1207.7240              1240.2122
 Red. masses --      1.8480                 1.7886                 2.0840
 Frc consts  --      1.5266                 1.5371                 1.8886
 IR Inten    --      9.5923                10.3120                48.0692

                     31                     32                     33
                      A                      A                      A
 Frequencies --   1301.4795              1338.9902              1344.7274
 Red. masses --      2.0170                 2.2733                 1.4423
 Frc consts  --      2.0129                 2.4014                 1.5367
 IR Inten    --     13.4653                17.2078                 3.8611

                     34                     35                     36
                      A                      A                      A
 Frequencies --   1399.0542              1410.9931              1480.0225
 Red. masses --      1.2228                 1.3772                 1.0522
 Frc consts  --      1.4101                 1.6154                 1.3580
 IR Inten    --      5.3590                 9.3424                 2.1475

                     37                     38                     39
                      A                      A                      A
 Frequencies --   1489.1510              1490.6900              1503.4454
 Red. masses --      1.0475                 1.0461                 1.0514
 Frc consts  --      1.3687                 1.3697                 1.4002
 IR Inten    --      7.0359                 1.4197                 4.5305

                     40                     41                     42
                      A                      A                      A
 Frequencies --   1526.0705              1886.7226              3008.2537
 Red. masses --      1.0940                12.6605                 1.0811
 Frc consts  --      1.5012                26.5533                 5.7645
 IR Inten    --      0.2999               244.2462                11.9742

                     43                     44                     45
                      A                      A                      A
 Frequencies --   3020.1779              3034.7815              3043.8587
 Red. masses --      1.0570                 1.0356                 1.0352
 Frc consts  --      5.6804                 5.6197                 5.6511
 IR Inten    --     70.1883                14.8463                22.2947

                     46                     47                     48
                      A                      A                      A
 Frequencies --   3070.1214              3103.0446              3110.7674
 Red. masses --      1.1092                 1.1004                 1.1013
 Frc consts  --      6.1600                 6.2428                 6.2791
 IR Inten    --     26.2768                13.5972                16.5492

                     49                     50                     51
                      A                      A                      A
 Frequencies --   3114.5646              3127.3623              3129.4590
 Red. masses --      1.1019                 1.0899                 1.1013
 Frc consts  --      6.2978                 6.2803                 6.3547
 IR Inten    --     16.8667                13.0982                11.4480

 - Thermochemistry -
 -------------------
 Temperature   298.150 Kelvin.  Pressure   1.00000 Atm.
 Atom     1 has atomic number  6 and mass  12.00000

 Molecular mass:   126.06808 amu.
 Principal axes and moments of inertia in atomic units:
                           1         2         3
     Eigenvalues --   808.584431095.458471359.20610
           X            0.99636   0.06065   0.05983
           Y           -0.06044   0.99816  -0.00545
           Z           -0.06005   0.00182   0.99819
 This molecule is an asymmetric top.
 Rotational symmetry number  1.
 Warning -- assumption of classical behavior for rotation
           may cause significant error
 Rotational temperatures (Kelvin)      0.10712     0.07907     0.06372
 Rotational constants (GHZ):           2.23198     1.64748     1.32779
 Zero-point vibrational energy     413127.8 (Joules/Mol)
                                   98.73992 (Kcal/Mol)
 Warning -- explicit consideration of  11 degrees of freedom as
           vibrations may cause significant error
 Vibrational temperatures:    103.12   253.44   270.46   285.37   300.10
          (Kelvin)            321.22   390.61   482.48   682.77   719.83
                              854.72   907.89   934.98  1077.43  1208.06
                             1233.46  1292.67  1363.13  1394.07  1435.19
                             1486.64  1504.78  1574.31  1581.99  1608.98
                             1670.68  1684.46  1703.62  1737.64  1784.39
                             1872.54  1926.51  1934.76  2012.92  2030.10
                             2129.42  2142.55  2144.77  2163.12  2195.67
                             2714.57  4328.20  4345.36  4366.37  4379.43
                             4417.21  4464.58  4475.69  4481.16  4499.57
                             4502.59

 Zero-point correction=                           0.157352 (Hartree/Particle)
 Thermal correction to Energy=                    0.166231
 Thermal correction to Enthalpy=                  0.167176
 Thermal correction to Gibbs Free Energy=         0.123909
 Sum of electronic and zero-point Energies=           -423.021275
 Sum of electronic and thermal Energies=              -423.012396
 Sum of electronic and thermal Enthalpies=            -423.011452
 Sum of electronic and thermal Free Energies=         -423.054718

                     E (Thermal)             CV                S
                      KCal/Mol        Cal/Mol-Kelvin    Cal/Mol-Kelvin
 Total                  104.312             33.143             91.061
 Electronic               0.000              0.000              0.000
 Translational            0.889              2.981             40.409
 Rotational               0.889              2.981             28.578
 Vibrational            102.534             27.182             22.075
 Vibration     1          0.598              1.968              4.107
 Vibration     2          0.628              1.872              2.369
 Vibration     3          0.633              1.856              2.248
 Vibration     4          0.637              1.842              2.148
 Vibration     5          0.642              1.828              2.056
 Vibration     6          0.649              1.806              1.933
 Vibration     7          0.675              1.726              1.587
 Vibration     8          0.716              1.605              1.234
 Vibration     9          0.831              1.307              0.725
 Vibration    10          0.856              1.249              0.657
 Vibration    11          0.952              1.044              0.460

 Optimization completed.
    -- Stationary point found.
 Normal termination of Gaussian 09 at Mon Jan 27 23:52:34 2020.
