 Gaussian 09, Revision D.01,
 Gaussian 09:  ES64L-G09RevD.01 24-Apr-2013

 -----------------------------
 # b3lyp 6-31G(2df,p) opt Freq
 -----------------------------

 -----
 titel
 -----
 Symbolic Z-matrix:
 Charge =  0 Multiplicity = 1

 SCF Done:  E(RB3LYP) =  -423.151835712     A.U. after   15 cycles
 Optimization completed.
    -- Stationary point found.
 Normal termination of Gaussian 09 at Tue Jan 28 08:18:00 2020.

 ----------------------------------------------------------------------
 #N Geom=AllCheck Guess=TCheck SCRF=Check GenChk RB3LYP/6-31G(2df,p) Fr
 eq
 ----------------------------------------------------------------------

 Structure from the checkpoint file:  "/scratch/puck/g09_98052296-ca76-43a3-996a-2a79ed931193/Gau-79699.chk"
 -----
 titel
 -----
 Charge =  0 Multiplicity = 1

                         Standard orientation:
 ---------------------------------------------------------------------
 Center     Atomic      Atomic             Coordinates (Angstroms)
 Number     Number       Type             X           Y           Z
 ---------------------------------------------------------------------
      1          6           0        3.082495   -0.106659    0.325492
      2          6           0        1.759783    0.381619   -0.270084
      3          6           0        0.561951   -0.456656    0.191072
      4          8           0        0.692756   -1.816257   -0.177088
      5          6           0       -0.793114    0.137110   -0.329161
      6          6           0       -1.065319    1.491060    0.335429
      7          8           0       -0.886097    2.553587   -0.195747
      8          6           0       -1.918330   -0.747508   -0.058451
      9          6           0       -2.878392   -1.421505    0.203233
     10          1           0        3.925222    0.469499   -0.066934
     11          1           0        3.085254   -0.002024    1.415945
     12          1           0        3.245704   -1.162016    0.092898
     13          1           0        1.591746    1.433496   -0.014984
     14          1           0        1.804205    0.342934   -1.368396
     15          1           0        0.522719   -0.473666    1.287436
     16          1           0        0.729026   -1.865023   -1.139497
     17          1           0       -0.696791    0.323753   -1.406447
     18          1           0       -1.440310    1.409680    1.378958
     19          1           0       -3.714492   -2.040036    0.418520
 ---------------------------------------------------------------------

 SCF Done:  E(RB3LYP) =  -423.151835712     A.U. after    1 cycles

 The electronic state is 1-A.
 Alpha  occ. eigenvalues --  -19.15280 -19.14972 -10.28412 -10.25383 -10.22547
 Alpha  occ. eigenvalues --  -10.19193 -10.19155 -10.18293 -10.17883  -1.06052
 Alpha  occ. eigenvalues --   -1.03445  -0.82375  -0.77724  -0.72702  -0.66685
 Alpha  occ. eigenvalues --   -0.61077  -0.59903  -0.54280  -0.49907  -0.49361
 Alpha  occ. eigenvalues --   -0.48340  -0.46154  -0.44626  -0.43018  -0.40333
 Alpha  occ. eigenvalues --   -0.39740  -0.37500  -0.36919  -0.34710  -0.33341
 Alpha  occ. eigenvalues --   -0.29336  -0.28573  -0.27300  -0.25319
 Alpha virt. eigenvalues --   -0.03762   0.04016   0.04923   0.07473   0.10306
 Alpha virt. eigenvalues --    0.12070   0.12264   0.13534   0.14049   0.15299
 Alpha virt. eigenvalues --    0.16319   0.17139   0.18257   0.20104   0.22148

 Mulliken charges:
               1
     1  C   -0.389902
     2  C   -0.197594
     3  C    0.133097
     4  O   -0.417504
     5  C   -0.312504
     6  C    0.162136
     7  O   -0.244301
     8  C    0.312677
     9  C   -0.423617
    10  H    0.116047
    11  H    0.118078
    12  H    0.129969
    13  H    0.122476
    14  H    0.092460
    15  H    0.100693
    16  H    0.282304
    17  H    0.115642
    18  H    0.098003
    19  H    0.201840
 Sum of Mulliken charges =   0.00000

 Dipole moment (field-independent basis, Debye):
    X=              0.4351    Y=             -1.1718    Z=             -0.2750  Tot=              1.2799
 Quadrupole moment (field-independent basis, Debye-Ang):
   XX=            -49.8485   YY=            -62.5293   ZZ=            -50.1527
   XY=              4.3796   XZ=             -2.5872   YZ=              3.6372

  Exact polarizability:  93.574  11.358  81.060  -4.880  -1.850  63.055
 Approx polarizability: 122.765  21.794 126.710 -10.620  -8.656  99.701

                      1                      2                      3
                      A                      A                      A
 Frequencies --     28.9137                66.5951                93.3095
 Red. masses --      3.6025                 5.4071                 2.2874
 Frc consts  --      0.0018                 0.0141                 0.0117
 IR Inten    --      3.9460                 3.5169                 0.7055

                      4                      5                      6
                      A                      A                      A
 Frequencies --    121.8466               177.1434               205.5136
 Red. masses --      3.8241                 3.3775                 1.3864
 Frc consts  --      0.0335                 0.0624                 0.0345
 IR Inten    --      0.8397                 1.2813                 1.3218

                      7                      8                      9
                      A                      A                      A
 Frequencies --    244.4241               257.2723               286.7731
 Red. masses --      1.8461                 3.2414                 1.1254
 Frc consts  --      0.0650                 0.1264                 0.0545
 IR Inten    --      7.7674                 1.7672                96.9208

                     10                     11                     12
                      A                      A                      A
 Frequencies --    365.9010               388.6863               430.9978
 Red. masses --      5.1900                 4.3713                 4.0123
 Frc consts  --      0.4094                 0.3891                 0.4391
 IR Inten    --     21.5513                 7.0784                12.3114

                     13                     14                     15
                      A                      A                      A
 Frequencies --    491.7802               515.2624               593.5406
 Red. masses --      3.3456                 4.0430                 3.5409
 Frc consts  --      0.4767                 0.6324                 0.7350
 IR Inten    --      2.7949                 9.9362                14.0675

                     16                     17                     18
                      A                      A                      A
 Frequencies --    636.0596               653.5510               779.7204
 Red. masses --      1.2300                 1.2212                 1.3224
 Frc consts  --      0.2932                 0.3073                 0.4737
 IR Inten    --     50.1366                41.4181                 1.5341

                     19                     20                     21
                      A                      A                      A
 Frequencies --    872.1104               930.2444               966.0695
 Red. masses --      2.2506                 2.6433                 2.8421
 Frc consts  --      1.0085                 1.3477                 1.5628
 IR Inten    --      2.4366                32.2060                 3.8106

                     22                     23                     24
                      A                      A                      A
 Frequencies --    996.7720              1042.7108              1068.3608
 Red. masses --      1.9085                 4.1827                 2.8841
 Frc consts  --      1.1172                 2.6794                 1.9396
 IR Inten    --     31.6967                25.1578                36.2680

                     25                     26                     27
                      A                      A                      A
 Frequencies --   1087.2820              1112.7438              1139.5583
 Red. masses --      1.8071                 1.8665                 2.5619
 Frc consts  --      1.2587                 1.3617                 1.9602
 IR Inten    --     32.5779                21.2380                38.6141

                     28                     29                     30
                      A                      A                      A
 Frequencies --   1202.4418              1263.5496              1276.4261
 Red. masses --      1.2913                 1.3245                 1.3774
 Frc consts  --      1.1001                 1.2459                 1.3222
 IR Inten    --      1.6271                 6.7222                 7.0896

                     31                     32                     33
                      A                      A                      A
 Frequencies --   1331.1234              1358.2112              1382.4649
 Red. masses --      1.2492                 1.3006                 1.4971
 Frc consts  --      1.3041                 1.4136                 1.6858
 IR Inten    --      2.5740                 3.5426                 5.1952

                     34                     35                     36
                      A                      A                      A
 Frequencies --   1408.4261              1415.9688              1430.7719
 Red. masses --      1.2218                 1.1990                 1.1806
 Frc consts  --      1.4280                 1.4163                 1.4240
 IR Inten    --      8.2995                 7.9097                27.0953

                     37                     38                     39
                      A                      A                      A
 Frequencies --   1480.6595              1496.3081              1509.2472
 Red. masses --      1.0776                 1.0402                 1.0612
 Frc consts  --      1.3920                 1.3722                 1.4242
 IR Inten    --      2.1058                 4.8326                 4.6499

                     40                     41                     42
                      A                      A                      A
 Frequencies --   1831.5325              2235.9462              2898.0966
 Red. masses --     10.3313                 5.9316                 1.0844
 Frc consts  --     20.4190                17.4721                 5.3663
 IR Inten    --    177.2179                 0.5894                70.1040

                     43                     44                     45
                      A                      A                      A
 Frequencies --   3006.0181              3028.5818              3040.1348
 Red. masses --      1.0698                 1.0816                 1.0402
 Frc consts  --      5.6956                 5.8450                 5.6644
 IR Inten    --     14.0889                 1.8514                20.4215

                     46                     47                     48
                      A                      A                      A
 Frequencies --   3045.2921              3075.3947              3106.2919
 Red. masses --      1.0803                 1.0919                 1.1006
 Frc consts  --      5.9028                 6.0844                 6.2567
 IR Inten    --     40.1585                10.2361                33.0671

                     49                     50                     51
                      A                      A                      A
 Frequencies --   3125.6440              3503.2799              3792.1920
 Red. masses --      1.1014                 1.1622                 1.0659
 Frc consts  --      6.3398                 8.4040                 9.0310
 IR Inten    --     21.0037                71.7369                18.5055

 - Thermochemistry -
 -------------------
 Temperature   298.150 Kelvin.  Pressure   1.00000 Atm.
 Atom     1 has atomic number  6 and mass  12.00000

 Molecular mass:   126.06808 amu.
 Principal axes and moments of inertia in atomic units:
                           1         2         3
     Eigenvalues --   895.770151486.166432254.38939
           X            0.99962   0.02735  -0.00190
           Y           -0.02734   0.99960   0.00692
           Z            0.00209  -0.00686   0.99997
 This molecule is an asymmetric top.
 Rotational symmetry number  1.
 Warning -- assumption of classical behavior for rotation
           may cause significant error
 Rotational temperatures (Kelvin)      0.09669     0.05828     0.03842
 Rotational constants (GHZ):           2.01474     1.21436     0.80055
 Zero-point vibrational energy     405517.0 (Joules/Mol)
                                   96.92088 (Kcal/Mol)
 Warning -- explicit consideration of  15 degrees of freedom as
           vibrations may cause significant error
 Vibrational temperatures:     41.60    95.82   134.25   175.31   254.87
          (Kelvin)            295.69   351.67   370.16   412.60   526.45
                              559.23   620.11   707.56   741.35   853.97
                              915.15   940.31  1121.84  1254.77  1338.41
                             1389.96  1434.13  1500.23  1537.13  1564.35
                             1600.99  1639.57  1730.04  1817.96  1836.49
                             1915.19  1954.16  1989.06  2026.41  2037.26
                             2058.56  2130.34  2152.85  2171.47  2635.16
                             3217.02  4169.71  4324.98  4357.45  4374.07
                             4381.49  4424.80  4469.26  4497.10  5040.43
                             5456.11

 Zero-point correction=                           0.154453 (Hartree/Particle)
 Thermal correction to Energy=                    0.165299
 Thermal correction to Enthalpy=                  0.166243
 Thermal correction to Gibbs Free Energy=         0.117371
 Sum of electronic and zero-point Energies=           -422.997382
 Sum of electronic and thermal Energies=              -422.986537
 Sum of electronic and thermal Enthalpies=            -422.985593
 Sum of electronic and thermal Free Energies=         -423.034465

                     E (Thermal)             CV                S
                      KCal/Mol        Cal/Mol-Kelvin    Cal/Mol-Kelvin
 Total                  103.727             37.954            102.861
 Electronic               0.000              0.000              0.000
 Translational            0.889              2.981             40.409
 Rotational               0.889              2.981             29.486
 Vibrational            101.949             31.992             32.966
 Vibration     1          0.593              1.984              5.903
 Vibration     2          0.598              1.970              4.252
 Vibration     3          0.602              1.954              3.589
 Vibration     4          0.609              1.931              3.071
 Vibration     5          0.628              1.870              2.358
 Vibration     6          0.640              1.832              2.083
 Vibration     7          0.660              1.772              1.770
 Vibration     8          0.667              1.750              1.680
 Vibration     9          0.684              1.698              1.493
 Vibration    10          0.739              1.542              1.097
 Vibration    11          0.757              1.494              1.005
 Vibration    12          0.792              1.403              0.855
 Vibration    13          0.848              1.268              0.679
 Vibration    14          0.870              1.216              0.621
 Vibration    15          0.951              1.046              0.461

 Normal termination of Gaussian 09 at Tue Jan 28 09:04:12 2020.
