 Gaussian 09, Revision D.01,
 Gaussian 09:  ES64L-G09RevD.01 24-Apr-2013

 -----------------------------
 # b3lyp 6-31G(2df,p) opt Freq
 -----------------------------

 -----
 titel
 -----
 Symbolic Z-matrix:
 Charge =  0 Multiplicity = 1

 SCF Done:  E(RB3LYP) =  -423.124181069     A.U. after   14 cycles
 SCF Done:  E(RB3LYP) =  -423.124179185     A.U. after    7 cycles
 SCF Done:  E(RB3LYP) =  -423.124180600     A.U. after    7 cycles
 SCF Done:  E(RB3LYP) =  -423.124184948     A.U. after    7 cycles
 SCF Done:  E(RB3LYP) =  -423.124182933     A.U. after    6 cycles
 Optimization completed.
    -- Stationary point found.
 Normal termination of Gaussian 09 at Mon Jan 27 14:30:01 2020.

 ----------------------------------------------------------------------
 #N Geom=AllCheck Guess=TCheck SCRF=Check GenChk RB3LYP/6-31G(2df,p) Fr
 eq
 ----------------------------------------------------------------------

 Structure from the checkpoint file:  "/scratch/puck/g09_a58a1a52-7ae6-4bdd-95a3-e60871f71088/Gau-64151.chk"
 -----
 titel
 -----
 Charge =  0 Multiplicity = 1

                         Standard orientation:
 ---------------------------------------------------------------------
 Center     Atomic      Atomic             Coordinates (Angstroms)
 Number     Number       Type             X           Y           Z
 ---------------------------------------------------------------------
      1          8           0        1.110857    0.069233    1.710780
      2          6           0        0.970491   -0.490064    0.415389
      3          6           0        2.223935   -0.444371   -0.348888
      4          6           0        3.248795   -0.409856   -0.975490
      5          6           0       -0.177015    0.220391   -0.340436
      6          8           0        0.161176    1.606757   -0.302645
      7          6           0       -1.515684   -0.041481    0.306211
      8          6           0       -2.782260    0.259801   -0.463829
      9          6           0       -2.386244   -1.168095   -0.183977
     10          1           0        1.159009    1.024087    1.564598
     11          1           0        0.682244   -1.536866    0.564011
     12          1           0        4.157698   -0.378324   -1.523807
     13          1           0       -0.192748   -0.139841   -1.380717
     14          1           0       -0.651162    2.105707   -0.434411
     15          1           0       -1.526882    0.158852    1.372929
     16          1           0       -3.624639    0.678770    0.074882
     17          1           0       -2.688015    0.612743   -1.486586
     18          1           0       -2.955356   -1.728566    0.548631
     19          1           0       -2.028528   -1.762429   -1.018486
 ---------------------------------------------------------------------

 SCF Done:  E(RB3LYP) =  -423.124182933     A.U. after    1 cycles

 The electronic state is 1-A.
 Alpha  occ. eigenvalues --  -19.14748 -19.13504 -10.25208 -10.24188 -10.19805
 Alpha  occ. eigenvalues --  -10.19748 -10.19595 -10.17547 -10.17074  -1.03974
 Alpha  occ. eigenvalues --   -1.01025  -0.86668  -0.77274  -0.72078  -0.64961
 Alpha  occ. eigenvalues --   -0.61048  -0.58895  -0.54107  -0.53139  -0.49520
 Alpha  occ. eigenvalues --   -0.48910  -0.46688  -0.45610  -0.42487  -0.39936
 Alpha  occ. eigenvalues --   -0.37557  -0.35790  -0.34387  -0.30698  -0.30428
 Alpha  occ. eigenvalues --   -0.28345  -0.28027  -0.26384  -0.25861
 Alpha virt. eigenvalues --    0.04167   0.05655   0.07910   0.09485   0.09745
 Alpha virt. eigenvalues --    0.12310   0.12489   0.13577   0.13873   0.15887
 Alpha virt. eigenvalues --    0.17472   0.17809   0.19668   0.21586   0.23819

 Mulliken charges:
               1
     1  O   -0.423658
     2  C   -0.079841
     3  C    0.331429
     4  C   -0.443101
     5  C    0.100952
     6  O   -0.454354
     7  C   -0.009156
     8  C   -0.298904
     9  C   -0.269662
    10  H    0.290816
    11  H    0.117051
    12  H    0.194275
    13  H    0.076140
    14  H    0.289992
    15  H    0.104873
    16  H    0.119259
    17  H    0.115402
    18  H    0.120590
    19  H    0.117897
 Sum of Mulliken charges =   0.00000

 Dipole moment (field-independent basis, Debye):
    X=             -2.2219    Y=              0.4466    Z=             -1.2089  Tot=              2.5686
 Quadrupole moment (field-independent basis, Debye-Ang):
   XX=            -49.8172   YY=            -50.9318   ZZ=            -54.8429
   XY=             -1.2955   XZ=             -3.5429   YZ=              1.3603

  Exact polarizability:  99.098  -0.435  66.370  -9.334   0.673  67.094
 Approx polarizability: 130.522   0.952  99.821 -17.955   0.921 105.756

                      1                      2                      3
                      A                      A                      A
 Frequencies --     70.3346                86.5014               120.5935
 Red. masses --      4.5758                 2.9448                 3.6581
 Frc consts  --      0.0133                 0.0130                 0.0313
 IR Inten    --      1.4487                 1.5876                 0.7683

                      4                      5                      6
                      A                      A                      A
 Frequencies --    182.7797               231.5520               254.1312
 Red. masses --      3.7249                 3.9867                 3.2035
 Frc consts  --      0.0733                 0.1259                 0.1219
 IR Inten    --      1.8098                 2.2742                 5.5354

                      7                      8                      9
                      A                      A                      A
 Frequencies --    280.4034               318.9492               344.0479
 Red. masses --      1.5208                 2.8236                 2.6108
 Frc consts  --      0.0705                 0.1692                 0.1821
 IR Inten    --     48.2415                 6.6416                26.2577

                     10                     11                     12
                      A                      A                      A
 Frequencies --    440.7043               472.5921               495.1909
 Red. masses --      2.3963                 1.7955                 2.7618
 Frc consts  --      0.2742                 0.2363                 0.3990
 IR Inten    --     25.3833                71.0137                33.6348

                     13                     14                     15
                      A                      A                      A
 Frequencies --    566.1739               624.2326               665.1426
 Red. masses --      6.4291                 1.2524                 1.2494
 Frc consts  --      1.2142                 0.2875                 0.3257
 IR Inten    --     25.3988                35.6558                36.5770

                     16                     17                     18
                      A                      A                      A
 Frequencies --    739.6187               783.0276               834.4431
 Red. masses --      3.3530                 1.1525                 1.3324
 Frc consts  --      1.0807                 0.4163                 0.5466
 IR Inten    --     42.6496                 7.0881                10.1002

                     19                     20                     21
                      A                      A                      A
 Frequencies --    858.8376               872.3382               942.9702
 Red. masses --      3.5752                 2.0272                 3.6698
 Frc consts  --      1.5537                 0.9089                 1.9226
 IR Inten    --      2.4551                12.1497                11.9055

                     22                     23                     24
                      A                      A                      A
 Frequencies --    968.1659              1000.5222              1052.8779
 Red. masses --      2.8198                 2.3239                 1.9693
 Frc consts  --      1.5573                 1.3707                 1.2863
 IR Inten    --     32.0950                 9.8158                28.9370

                     25                     26                     27
                      A                      A                      A
 Frequencies --   1061.2921              1082.4845              1092.0710
 Red. masses --      1.9942                 1.5045                 3.4824
 Frc consts  --      1.3234                 1.0387                 2.4470
 IR Inten    --     28.2114                23.6018               102.9869

                     28                     29                     30
                      A                      A                      A
 Frequencies --   1148.5972              1166.3621              1199.9495
 Red. masses --      1.1095                 1.6353                 1.3952
 Frc consts  --      0.8624                 1.3108                 1.1836
 IR Inten    --      1.0783                16.2369                 0.7366

                     31                     32                     33
                      A                      A                      A
 Frequencies --   1218.5111              1222.8504              1295.0221
 Red. masses --      1.5096                 1.5351                 1.2672
 Frc consts  --      1.3206                 1.3525                 1.2521
 IR Inten    --      9.8159                14.3443                 3.0693

                     34                     35                     36
                      A                      A                      A
 Frequencies --   1312.4289              1338.8415              1378.6130
 Red. masses --      1.2902                 1.3715                 1.4377
 Frc consts  --      1.3093                 1.4484                 1.6099
 IR Inten    --     58.3094                 5.4713                 3.6820

                     37                     38                     39
                      A                      A                      A
 Frequencies --   1433.7303              1438.8475              1469.1271
 Red. masses --      1.4310                 1.3937                 1.0867
 Frc consts  --      1.7332                 1.7000                 1.3819
 IR Inten    --     65.9125                34.4444                 1.3032

                     40                     41                     42
                      A                      A                      A
 Frequencies --   1503.9099              2234.3272              2987.4527
 Red. masses --      1.3696                 5.8956                 1.0832
 Frc consts  --      1.8251                17.3409                 5.6959
 IR Inten    --      1.3597                 1.0570                35.7487

                     43                     44                     45
                      A                      A                      A
 Frequencies --   3052.9869              3127.3452              3134.9195
 Red. masses --      1.0837                 1.0526                 1.0571
 Frc consts  --      5.9510                 6.0652                 6.1212
 IR Inten    --     15.6105                15.2636                10.2694

                     46                     47                     48
                      A                      A                      A
 Frequencies --   3164.9102              3208.8473              3224.4879
 Red. masses --      1.0887                 1.1169                 1.1150
 Frc consts  --      6.4250                 6.7760                 6.8303
 IR Inten    --      3.4009                 1.0773                16.6846

                     49                     50                     51
                      A                      A                      A
 Frequencies --   3503.7746              3760.1063              3824.0494
 Red. masses --      1.1626                 1.0648                 1.0661
 Frc consts  --      8.4093                 8.8703                 9.1857
 IR Inten    --     61.4726                40.6692                24.0246

 - Thermochemistry -
 -------------------
 Temperature   298.150 Kelvin.  Pressure   1.00000 Atm.
 Atom     1 has atomic number  8 and mass  15.99491

 Molecular mass:   126.06808 amu.
 Principal axes and moments of inertia in atomic units:
                           1         2         3
     Eigenvalues --   581.782291936.858221942.53261
           X            0.99998   0.00559   0.00028
           Y           -0.00422   0.72147   0.69243
           Z            0.00367  -0.69242   0.72149
 This molecule is an asymmetric top.
 Rotational symmetry number  1.
 Warning -- assumption of classical behavior for rotation
           may cause significant error
 Rotational temperatures (Kelvin)      0.14888     0.04472     0.04459
 Rotational constants (GHZ):           3.10209     0.93179     0.92907
 Zero-point vibrational energy     411467.4 (Joules/Mol)
                                   98.34307 (Kcal/Mol)
 Warning -- explicit consideration of  13 degrees of freedom as
           vibrations may cause significant error
 Vibrational temperatures:    101.20   124.46   173.51   262.98   333.15
          (Kelvin)            365.64   403.44   458.90   495.01   634.07
                              679.95   712.47   814.60   898.13   956.99
                             1064.15  1126.60  1200.58  1235.67  1255.10
                             1356.72  1392.97  1439.53  1514.85  1526.96
                             1557.45  1571.24  1652.57  1678.13  1726.46
                             1753.16  1759.41  1863.25  1888.29  1926.29
                             1983.51  2062.82  2070.18  2113.74  2163.79
                             3214.69  4298.27  4392.56  4499.55  4510.44
                             4553.59  4616.81  4639.31  5041.14  5409.95
                             5501.95

 Zero-point correction=                           0.156720 (Hartree/Particle)
 Thermal correction to Energy=                    0.166552
 Thermal correction to Enthalpy=                  0.167496
 Thermal correction to Gibbs Free Energy=         0.121927
 Sum of electronic and zero-point Energies=           -422.967463
 Sum of electronic and thermal Energies=              -422.957631
 Sum of electronic and thermal Enthalpies=            -422.956687
 Sum of electronic and thermal Free Energies=         -423.002256

                     E (Thermal)             CV                S
                      KCal/Mol        Cal/Mol-Kelvin    Cal/Mol-Kelvin
 Total                  104.513             36.628             95.910
 Electronic               0.000              0.000              0.000
 Translational            0.889              2.981             40.409
 Rotational               0.889              2.981             29.172
 Vibrational            102.736             30.666             26.329
 Vibration     1          0.598              1.968              4.144
 Vibration     2          0.601              1.959              3.738
 Vibration     3          0.609              1.932              3.091
 Vibration     4          0.630              1.863              2.300
 Vibration     5          0.653              1.793              1.867
 Vibration     6          0.665              1.756              1.702
 Vibration     7          0.680              1.710              1.531
 Vibration     8          0.705              1.637              1.315
 Vibration     9          0.723              1.587              1.193
 Vibration    10          0.801              1.381              0.824
 Vibration    11          0.829              1.311              0.730
 Vibration    12          0.851              1.261              0.670
 Vibration    13          0.922              1.104              0.512

 Optimization completed.
    -- Stationary point found.
 Normal termination of Gaussian 09 at Mon Jan 27 15:16:31 2020.
