 Gaussian 09, Revision D.01,
 Gaussian 09:  ES64L-G09RevD.01 24-Apr-2013

 -----------------------------
 # b3lyp 6-31G(2df,p) opt Freq
 -----------------------------

 -----
 titel
 -----
 Symbolic Z-matrix:
 Charge =  0 Multiplicity = 1

 SCF Done:  E(RB3LYP) =  -423.128153018     A.U. after   14 cycles
 SCF Done:  E(RB3LYP) =  -423.128152992     A.U. after    6 cycles
 Optimization completed.
    -- Stationary point found.
 Normal termination of Gaussian 09 at Tue Jan 28 13:30:18 2020.

 ----------------------------------------------------------------------
 #N Geom=AllCheck Guess=TCheck SCRF=Check GenChk RB3LYP/6-31G(2df,p) Fr
 eq
 ----------------------------------------------------------------------

 Structure from the checkpoint file:  "/scratch/puck/g09_730d4a50-9833-41a5-b868-6e082e5af9c0/Gau-31809.chk"
 -----
 titel
 -----
 Charge =  0 Multiplicity = 1

                         Standard orientation:
 ---------------------------------------------------------------------
 Center     Atomic      Atomic             Coordinates (Angstroms)
 Number     Number       Type             X           Y           Z
 ---------------------------------------------------------------------
      1          8           0       -2.593349   -1.571939    0.085791
      2          6           0       -2.288386   -0.276806    0.558749
      3          6           0       -1.442556    0.474206   -0.454560
      4          6           0       -0.630234    1.695660    0.019776
      5          6           0        0.602416    0.863208   -0.395011
      6          6           0        1.633396    0.545888    0.690479
      7          6           0        2.660815   -0.386174    0.244531
      8          6           0        3.503785   -1.148546   -0.145009
      9          8           0       -0.227065   -0.272863   -0.733277
     10          1           0       -1.749021   -1.966894   -0.165866
     11          1           0       -3.239267    0.243617    0.722236
     12          1           0       -1.753627   -0.312879    1.522966
     13          1           0       -2.014085    0.628204   -1.378405
     14          1           0       -0.787140    2.624281   -0.529006
     15          1           0       -0.701082    1.893686    1.093010
     16          1           0        1.117021    1.239237   -1.287851
     17          1           0        2.097325    1.490652    1.006123
     18          1           0        1.111125    0.141355    1.566333
     19          1           0        4.246649   -1.827461   -0.483379
 ---------------------------------------------------------------------

 SCF Done:  E(RB3LYP) =  -423.128152992     A.U. after    1 cycles

 The electronic state is 1-A.
 Alpha  occ. eigenvalues --  -19.14081 -19.13176 -10.24928 -10.23822 -10.22779
 Alpha  occ. eigenvalues --  -10.21483 -10.19828 -10.18269 -10.17204  -1.04932
 Alpha  occ. eigenvalues --   -1.01194  -0.80189  -0.76184  -0.73033  -0.69266
 Alpha  occ. eigenvalues --   -0.62576  -0.56122  -0.53436  -0.51424  -0.49915
 Alpha  occ. eigenvalues --   -0.48033  -0.47227  -0.44675  -0.43023  -0.40142
 Alpha  occ. eigenvalues --   -0.39903  -0.38479  -0.35986  -0.31850  -0.31695
 Alpha  occ. eigenvalues --   -0.28108  -0.26597  -0.26413  -0.24992
 Alpha virt. eigenvalues --    0.04440   0.05343   0.07619   0.09201   0.10145
 Alpha virt. eigenvalues --    0.11663   0.12908   0.13134   0.13775   0.15333
 Alpha virt. eigenvalues --    0.16190   0.16542   0.18478   0.20462   0.21646

 Mulliken charges:
               1
     1  O   -0.419840
     2  C   -0.064868
     3  C    0.140289
     4  C   -0.348766
     5  C    0.168185
     6  C   -0.368411
     7  C    0.300406
     8  C   -0.435309
     9  O   -0.318761
    10  H    0.296193
    11  H    0.107863
    12  H    0.078978
    13  H    0.086020
    14  H    0.115884
    15  H    0.109683
    16  H    0.091383
    17  H    0.132153
    18  H    0.130978
    19  H    0.197941
 Sum of Mulliken charges =   0.00000

 Dipole moment (field-independent basis, Debye):
    X=              0.7680    Y=              2.4141    Z=              0.5739  Tot=              2.5975
 Quadrupole moment (field-independent basis, Debye-Ang):
   XX=            -56.7914   YY=            -50.9531   ZZ=            -53.0259
   XY=             -5.9663   XZ=             -0.9617   YZ=              0.5601

  Exact polarizability:  95.380 -11.193  75.747  -4.520   3.851  62.031
 Approx polarizability: 124.405 -19.935 114.564 -10.032  11.001  94.742

                      1                      2                      3
                      A                      A                      A
 Frequencies --     38.0794                76.7459               106.3947
 Red. masses --      6.0778                 3.4779                 2.8625
 Frc consts  --      0.0052                 0.0121                 0.0191
 IR Inten    --      0.2880                 0.0724                 2.9298

                      4                      5                      6
                      A                      A                      A
 Frequencies --    139.4890               226.9751               314.6785
 Red. masses --      3.7123                 3.2825                 3.9120
 Frc consts  --      0.0426                 0.0996                 0.2282
 IR Inten    --      2.0189                 1.6194                 0.4415

                      7                      8                      9
                      A                      A                      A
 Frequencies --    345.9815               377.1660               390.8149
 Red. masses --      3.0620                 2.3008                 3.3772
 Frc consts  --      0.2160                 0.1928                 0.3039
 IR Inten    --      2.1885                 5.6641                 0.8202

                     10                     11                     12
                      A                      A                      A
 Frequencies --    466.1282               496.2799               516.9683
 Red. masses --      1.1503                 3.1141                 3.8209
 Frc consts  --      0.1472                 0.4519                 0.6016
 IR Inten    --     94.9469                13.2701                 7.8431

                     13                     14                     15
                      A                      A                      A
 Frequencies --    621.7113               642.3862               717.9418
 Red. masses --      1.2064                 1.2291                 2.3492
 Frc consts  --      0.2747                 0.2988                 0.7134
 IR Inten    --     41.6352                41.6439                 5.1378

                     16                     17                     18
                      A                      A                      A
 Frequencies --    847.6028               858.0651               896.2778
 Red. masses --      2.6127                 1.6745                 4.0433
 Frc consts  --      1.1059                 0.7264                 1.9137
 IR Inten    --     23.2914                13.9490                11.5468

                     19                     20                     21
                      A                      A                      A
 Frequencies --    926.8853               963.9459              1027.6454
 Red. masses --      1.5779                 3.7264                 3.1993
 Frc consts  --      0.7987                 2.0401                 1.9906
 IR Inten    --     10.6179                 1.4579                74.2796

                     22                     23                     24
                      A                      A                      A
 Frequencies --   1034.6267              1043.7062              1083.1501
 Red. masses --      2.4443                 2.7358                 3.6179
 Frc consts  --      1.5416                 1.7559                 2.5008
 IR Inten    --     10.6434               103.6882                54.6103

                     25                     26                     27
                      A                      A                      A
 Frequencies --   1108.1277              1134.9121              1163.2489
 Red. masses --      2.6089                 2.3157                 1.4983
 Frc consts  --      1.8875                 1.7573                 1.1945
 IR Inten    --     11.5219                 9.3149                 1.5731

                     28                     29                     30
                      A                      A                      A
 Frequencies --   1222.4573              1233.1799              1254.7706
 Red. masses --      1.2583                 1.2100                 1.4456
 Frc consts  --      1.1079                 1.0841                 1.3410
 IR Inten    --      9.9671                 1.2486                 2.9371

                     31                     32                     33
                      A                      A                      A
 Frequencies --   1285.9761              1300.2827              1334.6618
 Red. masses --      1.2549                 1.3870                 1.3215
 Frc consts  --      1.2227                 1.3816                 1.3870
 IR Inten    --      6.8704                10.9414                16.5080

                     34                     35                     36
                      A                      A                      A
 Frequencies --   1355.0570              1384.2494              1409.2327
 Red. masses --      1.4022                 1.2842                 1.3082
 Frc consts  --      1.5169                 1.4498                 1.5308
 IR Inten    --      1.5479                30.4123                10.7605

                     37                     38                     39
                      A                      A                      A
 Frequencies --   1437.4731              1456.0097              1490.1953
 Red. masses --      1.3739                 1.0980                 1.1234
 Frc consts  --      1.6726                 1.3714                 1.4699
 IR Inten    --     55.3995                 3.0214                 3.2656

                     40                     41                     42
                      A                      A                      A
 Frequencies --   1497.6976              2242.0322              2962.2200
 Red. masses --      1.1032                 5.9181                 1.0697
 Frc consts  --      1.4580                17.5272                 5.5304
 IR Inten    --      1.7067                 1.6718                46.1481

                     43                     44                     45
                      A                      A                      A
 Frequencies --   3015.4595              3025.7938              3030.4375
 Red. masses --      1.0598                 1.0846                 1.0865
 Frc consts  --      5.6776                 5.8505                 5.8787
 IR Inten    --     14.8658                28.8127                45.1613

                     46                     47                     48
                      A                      A                      A
 Frequencies --   3058.8836              3066.3719              3067.0110
 Red. masses --      1.0990                 1.0924                 1.0638
 Frc consts  --      6.0588                 6.0518                 5.8958
 IR Inten    --     27.4474                40.0073                27.4677

                     49                     50                     51
                      A                      A                      A
 Frequencies --   3134.3619              3507.0297              3782.0940
 Red. masses --      1.1043                 1.1627                 1.0655
 Frc consts  --      6.3917                 8.4253                 8.9797
 IR Inten    --     21.0921                67.1993                26.6311

 - Thermochemistry -
 -------------------
 Temperature   298.150 Kelvin.  Pressure   1.00000 Atm.
 Atom     1 has atomic number  8 and mass  15.99491

 Molecular mass:   126.06808 amu.
 Principal axes and moments of inertia in atomic units:
                           1         2         3
     Eigenvalues --   593.262071970.844412313.03367
           X            0.99992  -0.01175  -0.00413
           Y            0.01178   0.99988   0.00969
           Z            0.00402  -0.00974   0.99994
 This molecule is an asymmetric top.
 Rotational symmetry number  1.
 Warning -- assumption of classical behavior for rotation
           may cause significant error
 Rotational temperatures (Kelvin)      0.14600     0.04395     0.03745
 Rotational constants (GHZ):           3.04206     0.91572     0.78025
 Zero-point vibrational energy     413422.7 (Joules/Mol)
                                   98.81039 (Kcal/Mol)
 Warning -- explicit consideration of  12 degrees of freedom as
           vibrations may cause significant error
 Vibrational temperatures:     54.79   110.42   153.08   200.69   326.57
          (Kelvin)            452.75   497.79   542.66   562.29   670.65
                              714.04   743.80   894.50   924.25  1032.96
                             1219.51  1234.56  1289.54  1333.58  1386.90
                             1478.55  1488.60  1501.66  1558.41  1594.35
                             1632.88  1673.65  1758.84  1774.27  1805.33
                             1850.23  1870.81  1920.28  1949.62  1991.62
                             2027.57  2068.20  2094.87  2144.06  2154.85
                             3225.78  4261.97  4338.57  4353.44  4360.12
                             4401.05  4411.82  4412.74  4509.64  5045.83
                             5441.58

 Zero-point correction=                           0.157464 (Hartree/Particle)
 Thermal correction to Energy=                    0.166927
 Thermal correction to Enthalpy=                  0.167871
 Thermal correction to Gibbs Free Energy=         0.122099
 Sum of electronic and zero-point Energies=           -422.970689
 Sum of electronic and thermal Energies=              -422.961226
 Sum of electronic and thermal Enthalpies=            -422.960282
 Sum of electronic and thermal Free Energies=         -423.006054

                     E (Thermal)             CV                S
                      KCal/Mol        Cal/Mol-Kelvin    Cal/Mol-Kelvin
 Total                  104.748             34.575             96.335
 Electronic               0.000              0.000              0.000
 Translational            0.889              2.981             40.409
 Rotational               0.889              2.981             29.382
 Vibrational            102.971             28.614             26.544
 Vibration     1          0.594              1.982              5.357
 Vibration     2          0.599              1.965              3.972
 Vibration     3          0.605              1.944              3.334
 Vibration     4          0.615              1.914              2.811
 Vibration     5          0.651              1.800              1.903
 Vibration     6          0.702              1.646              1.338
 Vibration     7          0.724              1.583              1.184
 Vibration     8          0.748              1.519              1.051
 Vibration     9          0.758              1.490              0.997
 Vibration    10          0.823              1.325              0.748
 Vibration    11          0.852              1.258              0.667
 Vibration    12          0.872              1.212              0.617

 Optimization completed.
    -- Stationary point found.
 Normal termination of Gaussian 09 at Tue Jan 28 14:07:42 2020.
