 Gaussian 09, Revision D.01,
 Gaussian 09:  ES64L-G09RevD.01 24-Apr-2013

 -----------------------------
 # b3lyp 6-31G(2df,p) opt Freq
 -----------------------------

 -----
 titel
 -----
 Symbolic Z-matrix:
 Charge =  0 Multiplicity = 1

 SCF Done:  E(RB3LYP) =  -423.154722564     A.U. after   13 cycles
 Optimization completed.
    -- Stationary point found.
 Normal termination of Gaussian 09 at Mon Jan 27 22:04:36 2020.

 ----------------------------------------------------------------------
 #N Geom=AllCheck Guess=TCheck SCRF=Check GenChk RB3LYP/6-31G(2df,p) Fr
 eq
 ----------------------------------------------------------------------

 Structure from the checkpoint file:  "/scratch/puck/g09_7bda4d4b-dbe2-448b-870a-d15e0d339a84/Gau-189519.chk"
 -----
 titel
 -----
 Charge =  0 Multiplicity = 1

                         Standard orientation:
 ---------------------------------------------------------------------
 Center     Atomic      Atomic             Coordinates (Angstroms)
 Number     Number       Type             X           Y           Z
 ---------------------------------------------------------------------
      1          6           0        2.381408    0.912264   -0.359342
      2          6           0        1.378029    0.331376    0.620692
      3          6           0        0.772618   -1.117999    0.340174
      4          8           0        0.721285   -1.449904   -1.018641
      5          6           0       -0.615202   -0.575148    0.856057
      6          8           0       -1.759879   -0.732517    0.034059
      7          6           0       -2.160085    0.598503   -0.380011
      8          6           0       -0.908793    1.450959   -0.223036
      9          6           0       -0.068506    0.785825    0.562441
     10          1           0        2.530016    1.982272   -0.181414
     11          1           0        3.353102    0.417579   -0.261101
     12          1           0        2.030049    0.771349   -1.384083
     13          1           0        1.768419    0.343389    1.645157
     14          1           0        1.230338   -1.930674    0.916038
     15          1           0       -0.215082   -1.421089   -1.264877
     16          1           0       -0.825771   -0.843445    1.898148
     17          1           0       -2.497948    0.547875   -1.421510
     18          1           0       -3.011704    0.931535    0.233065
     19          1           0       -0.729493    2.345894   -0.804608
 ---------------------------------------------------------------------

 SCF Done:  E(RB3LYP) =  -423.154722564     A.U. after    1 cycles

 The electronic state is 1-A.
 Alpha  occ. eigenvalues --  -19.15253 -19.13350 -10.23993 -10.23660 -10.23048
 Alpha  occ. eigenvalues --  -10.20037 -10.18862 -10.18748 -10.17347  -1.04964
 Alpha  occ. eigenvalues --   -1.01494  -0.84601  -0.76532  -0.72968  -0.66453
 Alpha  occ. eigenvalues --   -0.60842  -0.58613  -0.53882  -0.51211  -0.48192
 Alpha  occ. eigenvalues --   -0.48025  -0.44219  -0.43725  -0.41838  -0.40621
 Alpha  occ. eigenvalues --   -0.39713  -0.35895  -0.35577  -0.34160  -0.32274
 Alpha  occ. eigenvalues --   -0.31011  -0.27874  -0.25400  -0.23775
 Alpha virt. eigenvalues --    0.00156   0.08074   0.10281   0.11429   0.12164
 Alpha virt. eigenvalues --    0.13289   0.15153   0.15833   0.16189   0.17580
 Alpha virt. eigenvalues --    0.17889   0.18362   0.19062   0.19891   0.20266

 Mulliken charges:
               1
     1  C   -0.402694
     2  C   -0.091233
     3  C    0.087685
     4  O   -0.431499
     5  C    0.040546
     6  O   -0.288043
     7  C   -0.116211
     8  C   -0.231171
     9  C    0.198282
    10  H    0.115233
    11  H    0.118436
    12  H    0.133575
    13  H    0.082800
    14  H    0.071833
    15  H    0.291706
    16  H    0.083587
    17  H    0.117830
    18  H    0.111620
    19  H    0.107720
 Sum of Mulliken charges =   0.00000

 Dipole moment (field-independent basis, Debye):
    X=             -0.3351    Y=              1.4427    Z=              0.6966  Tot=              1.6367
 Quadrupole moment (field-independent basis, Debye-Ang):
   XX=            -52.8435   YY=            -54.6608   ZZ=            -51.8565
   XY=             -0.9410   XZ=              3.5635   YZ=             -3.1395

  Exact polarizability:  91.114  -5.879  73.243   7.392  -7.536  67.859
 Approx polarizability: 125.117 -12.434 111.210  16.659 -12.550 110.090

                      1                      2                      3
                      A                      A                      A
 Frequencies --    120.4339               149.1816               198.5875
 Red. masses --      4.6428                 2.7299                 1.0563
 Frc consts  --      0.0397                 0.0358                 0.0245
 IR Inten    --      3.0220                 1.7515                 0.0601

                      4                      5                      6
                      A                      A                      A
 Frequencies --    219.4969               251.9138               279.3665
 Red. masses --      3.2824                 6.1758                 2.3293
 Frc consts  --      0.0932                 0.2309                 0.1071
 IR Inten    --      3.7091                 9.7802                 2.6033

                      7                      8                      9
                      A                      A                      A
 Frequencies --    395.8913               455.8796               505.1939
 Red. masses --      1.1845                 2.4569                 4.4424
 Frc consts  --      0.1094                 0.3008                 0.6680
 IR Inten    --     46.6323                 8.0442                 5.3959

                     10                     11                     12
                      A                      A                      A
 Frequencies --    572.7045               643.9667               708.7769
 Red. masses --      3.0912                 3.6539                 4.5704
 Frc consts  --      0.5974                 0.8928                 1.3528
 IR Inten    --      7.4792                 0.7593                 2.8929

                     13                     14                     15
                      A                      A                      A
 Frequencies --    768.6548               803.2425               838.1983
 Red. masses --      4.0881                 1.4212                 2.5095
 Frc consts  --      1.4231                 0.5402                 1.0388
 IR Inten    --     16.1100                 9.1771                19.7121

                     16                     17                     18
                      A                      A                      A
 Frequencies --    853.5288               900.5629               929.6335
 Red. masses --      4.8013                 2.5774                 2.1328
 Frc consts  --      2.0608                 1.2316                 1.0860
 IR Inten    --      2.3153                10.5943                 2.2127

                     19                     20                     21
                      A                      A                      A
 Frequencies --    966.9182              1007.3586              1011.6404
 Red. masses --      3.6791                 1.6122                 2.4156
 Frc consts  --      2.0266                 0.9639                 1.4565
 IR Inten    --     33.0442                32.3900                 3.7842

                     22                     23                     24
                      A                      A                      A
 Frequencies --   1046.8260              1063.9883              1115.1504
 Red. masses --      2.4598                 1.6244                 2.8900
 Frc consts  --      1.5882                 1.0835                 2.1175
 IR Inten    --     26.2134                 4.4531                53.6629

                     25                     26                     27
                      A                      A                      A
 Frequencies --   1121.7316              1164.8911              1170.4798
 Red. masses --      1.4664                 2.4718                 2.9707
 Frc consts  --      1.0871                 1.9762                 2.3979
 IR Inten    --     21.4970                 8.1194                25.4491

                     28                     29                     30
                      A                      A                      A
 Frequencies --   1201.6039              1228.6025              1242.7292
 Red. masses --      1.1159                 1.3930                 1.4497
 Frc consts  --      0.9492                 1.2389                 1.3191
 IR Inten    --      0.6050                 8.8572                 3.1027

                     31                     32                     33
                      A                      A                      A
 Frequencies --   1283.5047              1321.7278              1345.4156
 Red. masses --      1.4497                 1.4964                 1.5176
 Frc consts  --      1.4071                 1.5402                 1.6185
 IR Inten    --      3.4354                 8.7929                10.3087

                     34                     35                     36
                      A                      A                      A
 Frequencies --   1355.3093              1380.1119              1404.4725
 Red. masses --      1.3398                 1.4976                 1.2681
 Frc consts  --      1.4500                 1.6807                 1.4738
 IR Inten    --      5.8249                 4.8902                20.9792

                     37                     38                     39
                      A                      A                      A
 Frequencies --   1412.7605              1490.9255              1497.6131
 Red. masses --      1.2617                 1.0433                 1.0483
 Frc consts  --      1.4837                 1.3664                 1.3852
 IR Inten    --     61.1520                 2.8898                 4.3799

                     40                     41                     42
                      A                      A                      A
 Frequencies --   1514.8795              1715.1950              2985.7346
 Red. masses --      1.0886                 8.2252                 1.0687
 Frc consts  --      1.4719                14.2569                 5.6132
 IR Inten    --      0.6783                 3.8209                85.4232

                     43                     44                     45
                      A                      A                      A
 Frequencies --   3026.4913              3032.3144              3038.8221
 Red. masses --      1.0851                 1.0813                 1.0421
 Frc consts  --      5.8558                 5.8577                 5.6696
 IR Inten    --     18.3581                 5.9463                45.7846

                     46                     47                     48
                      A                      A                      A
 Frequencies --   3046.6807              3054.8942              3101.9603
 Red. masses --      1.0821                 1.0940                 1.1013
 Frc consts  --      5.9178                 6.0156                 6.2432
 IR Inten    --    108.5269                27.5769                20.0564

                     49                     50                     51
                      A                      A                      A
 Frequencies --   3129.4735              3218.2532              3713.3340
 Red. masses --      1.1004                 1.0956                 1.0656
 Frc consts  --      6.3498                 6.6856                 8.6568
 IR Inten    --     15.7777                 4.4848                61.8483

 - Thermochemistry -
 -------------------
 Temperature   298.150 Kelvin.  Pressure   1.00000 Atm.
 Atom     1 has atomic number  6 and mass  12.00000

 Molecular mass:   126.06808 amu.
 Principal axes and moments of inertia in atomic units:
                           1         2         3
     Eigenvalues --   643.205851149.707601419.07779
           X            0.99990   0.01084   0.00874
           Y           -0.01024   0.99778  -0.06574
           Z           -0.00943   0.06564   0.99780
 This molecule is an asymmetric top.
 Rotational symmetry number  1.
 Warning -- assumption of classical behavior for rotation
           may cause significant error
 Rotational temperatures (Kelvin)      0.13466     0.07534     0.06104
 Rotational constants (GHZ):           2.80585     1.56974     1.27177
 Zero-point vibrational energy     418734.9 (Joules/Mol)
                                  100.08004 (Kcal/Mol)
 Warning -- explicit consideration of  10 degrees of freedom as
           vibrations may cause significant error
 Vibrational temperatures:    173.28   214.64   285.72   315.81   362.45
          (Kelvin)            401.95   569.60   655.91   726.86   823.99
                              926.52  1019.77  1105.92  1155.69  1205.98
                             1228.04  1295.71  1337.53  1391.18  1449.36
                             1455.52  1506.15  1530.84  1604.45  1613.92
                             1676.02  1684.06  1728.84  1767.68  1788.01
                             1846.67  1901.67  1935.75  1949.99  1985.67
                             2020.72  2032.64  2145.11  2154.73  2179.57
                             2467.78  4295.80  4354.44  4362.82  4372.18
                             4383.49  4395.31  4463.02  4502.61  4630.34
                             5342.65

 Zero-point correction=                           0.159488 (Hartree/Particle)
 Thermal correction to Energy=                    0.167682
 Thermal correction to Enthalpy=                  0.168626
 Thermal correction to Gibbs Free Energy=         0.127020
 Sum of electronic and zero-point Energies=           -422.995235
 Sum of electronic and thermal Energies=              -422.987040
 Sum of electronic and thermal Enthalpies=            -422.986096
 Sum of electronic and thermal Free Energies=         -423.027702

                     E (Thermal)             CV                S
                      KCal/Mol        Cal/Mol-Kelvin    Cal/Mol-Kelvin
 Total                  105.222             31.761             87.567
 Electronic               0.000              0.000              0.000
 Translational            0.889              2.981             40.409
 Rotational               0.889              2.981             28.442
 Vibrational            103.445             25.800             18.717
 Vibration     1          0.609              1.932              3.093
 Vibration     2          0.618              1.904              2.683
 Vibration     3          0.637              1.842              2.146
 Vibration     4          0.647              1.811              1.963
 Vibration     5          0.664              1.760              1.717
 Vibration     6          0.680              1.712              1.538
 Vibration     7          0.763              1.479              0.978
 Vibration     8          0.814              1.348              0.778
 Vibration     9          0.860              1.238              0.645
 Vibration    10          0.929              1.090              0.499

 Optimization completed.
    -- Stationary point found.
 Normal termination of Gaussian 09 at Mon Jan 27 22:49:36 2020.
