 Gaussian 09, Revision D.01,
 Gaussian 09:  ES64L-G09RevD.01 24-Apr-2013

 -----------------------------
 # b3lyp 6-31G(2df,p) opt Freq
 -----------------------------

 -----
 titel
 -----
 Symbolic Z-matrix:
 Charge =  0 Multiplicity = 1

 SCF Done:  E(RB3LYP) =  -423.115475239     A.U. after   14 cycles
 Optimization completed.
    -- Stationary point found.
 Normal termination of Gaussian 09 at Mon Jan 27 22:52:15 2020.

 ----------------------------------------------------------------------
 #N Geom=AllCheck Guess=TCheck SCRF=Check GenChk RB3LYP/6-31G(2df,p) Fr
 eq
 ----------------------------------------------------------------------

 Structure from the checkpoint file:  "/scratch/puck/g09_c4cc6fe9-5c11-4767-bb17-2395ebf6c855/Gau-191476.chk"
 -----
 titel
 -----
 Charge =  0 Multiplicity = 1

                         Standard orientation:
 ---------------------------------------------------------------------
 Center     Atomic      Atomic             Coordinates (Angstroms)
 Number     Number       Type             X           Y           Z
 ---------------------------------------------------------------------
      1          6           0       -1.764986    1.583694   -0.020788
      2          6           0       -0.633764    0.597872    0.007272
      3          6           0       -0.790377   -0.850154   -0.336855
      4          8           0       -2.126607   -1.270425   -0.368633
      5          6           0       -0.248243   -0.503067    1.033342
      6          6           0        1.227493   -0.062256    0.999333
      7          6           0        2.159540   -0.655613   -0.079189
      8          8           0        1.679351    0.295246   -1.067413
      9          6           0        0.865746    0.977441   -0.075802
     10          1           0       -1.839784    2.058976   -1.006643
     11          1           0       -2.713516    1.081444    0.181037
     12          1           0       -1.627054    2.377519    0.721808
     13          1           0       -0.158487   -1.293581   -1.103802
     14          1           0       -2.153822   -2.186661   -0.075069
     15          1           0       -0.790622   -0.823713    1.915818
     16          1           0        1.658128    0.217456    1.959557
     17          1           0        3.227857   -0.506711    0.120085
     18          1           0        1.990215   -1.695544   -0.381985
     19          1           0        1.092674    2.044742   -0.006315
 ---------------------------------------------------------------------

 SCF Done:  E(RB3LYP) =  -423.115475239     A.U. after    1 cycles

 The electronic state is 1-A.
 Alpha  occ. eigenvalues --  -19.14528 -19.13039 -10.23319 -10.23151 -10.22785
 Alpha  occ. eigenvalues --  -10.19385 -10.19350 -10.19115 -10.17356  -1.03714
 Alpha  occ. eigenvalues --   -1.02775  -0.87573  -0.73858  -0.70592  -0.68575
 Alpha  occ. eigenvalues --   -0.60322  -0.56940  -0.53266  -0.51434  -0.48850
 Alpha  occ. eigenvalues --   -0.47107  -0.44903  -0.43192  -0.40904  -0.40369
 Alpha  occ. eigenvalues --   -0.39900  -0.37339  -0.35849  -0.32970  -0.30324
 Alpha  occ. eigenvalues --   -0.29876  -0.26468  -0.24513  -0.23491
 Alpha virt. eigenvalues --    0.06421   0.07918   0.09562   0.10581   0.12227
 Alpha virt. eigenvalues --    0.13495   0.14609   0.15806   0.16767   0.17035
 Alpha virt. eigenvalues --    0.18111   0.18776   0.19191   0.21007   0.21859

 Mulliken charges:
               1
     1  C   -0.512482
     2  C    0.330647
     3  C    0.038309
     4  O   -0.439183
     5  C   -0.190167
     6  C   -0.074716
     7  C   -0.109609
     8  O   -0.299885
     9  C    0.041820
    10  H    0.123121
    11  H    0.141343
    12  H    0.111861
    13  H    0.103428
    14  H    0.288572
    15  H    0.086576
    16  H    0.081416
    17  H    0.101836
    18  H    0.100013
    19  H    0.077100
 Sum of Mulliken charges =   0.00000

 Dipole moment (field-independent basis, Debye):
    X=              0.2179    Y=             -1.0325    Z=              2.0830  Tot=              2.3351
 Quadrupole moment (field-independent basis, Debye-Ang):
   XX=            -55.1100   YY=            -47.0493   ZZ=            -55.1805
   XY=              0.6359   XZ=              1.5506   YZ=              0.0715

  Exact polarizability:  84.228  -2.561  76.406   1.431  -0.684  63.722
 Approx polarizability: 110.987  -1.627 112.205   1.582  -3.614 102.589

                      1                      2                      3
                      A                      A                      A
 Frequencies --    159.7001               179.7903               215.4558
 Red. masses --      3.0170                 1.0468                 3.7227
 Frc consts  --      0.0453                 0.0199                 0.1018
 IR Inten    --      2.4714                 0.6274                 0.5110

                      4                      5                      6
                      A                      A                      A
 Frequencies --    241.4212               257.3675               286.5433
 Red. masses --      2.3694                 2.3213                 1.4933
 Frc consts  --      0.0814                 0.0906                 0.0722
 IR Inten    --     27.4103                10.8099                66.3414

                      7                      8                      9
                      A                      A                      A
 Frequencies --    322.7602               405.6487               476.6289
 Red. masses --      3.2951                 3.4159                 2.7753
 Frc consts  --      0.2022                 0.3312                 0.3715
 IR Inten    --      7.0641                 0.8250                 4.3773

                     10                     11                     12
                      A                      A                      A
 Frequencies --    555.2253               643.3216               715.6246
 Red. masses --      5.2057                 3.6889                 3.4854
 Frc consts  --      0.9455                 0.8995                 1.0517
 IR Inten    --     17.8488                 0.4300                 6.6164

                     13                     14                     15
                      A                      A                      A
 Frequencies --    795.7675               840.1599               856.7335
 Red. masses --      2.6541                 2.9512                 3.0685
 Frc consts  --      0.9902                 1.2274                 1.3270
 IR Inten    --      2.0581                 0.6492                 1.8566

                     16                     17                     18
                      A                      A                      A
 Frequencies --    879.7787               914.5903               938.7331
 Red. masses --      1.8582                 1.4699                 2.0646
 Frc consts  --      0.8474                 0.7244                 1.0719
 IR Inten    --      7.9740                19.1032                17.0764

                     19                     20                     21
                      A                      A                      A
 Frequencies --    960.0209               985.8258               998.3764
 Red. masses --      3.4232                 3.7612                 1.8693
 Frc consts  --      1.8589                 2.1536                 1.0978
 IR Inten    --     34.6652                59.1092                 8.9892

                     22                     23                     24
                      A                      A                      A
 Frequencies --   1047.8069              1073.9179              1081.4774
 Red. masses --      2.0276                 1.6421                 1.4128
 Frc consts  --      1.3116                 1.1158                 0.9736
 IR Inten    --      9.3225                 1.1059                 0.7154

                     25                     26                     27
                      A                      A                      A
 Frequencies --   1116.2175              1135.6758              1160.7974
 Red. masses --      2.0439                 3.1032                 1.3019
 Frc consts  --      1.5004                 2.3581                 1.0336
 IR Inten    --     27.3923                38.3125                 5.9458

                     28                     29                     30
                      A                      A                      A
 Frequencies --   1189.3852              1205.5137              1234.4292
 Red. masses --      1.6881                 2.0501                 1.8341
 Frc consts  --      1.4070                 1.7554                 1.6467
 IR Inten    --     15.7613                 5.8925                 3.7895

                     31                     32                     33
                      A                      A                      A
 Frequencies --   1245.3995              1276.9911              1280.3588
 Red. masses --      1.8037                 1.6950                 1.2644
 Frc consts  --      1.6483                 1.6285                 1.2212
 IR Inten    --      1.1890                68.7328                 0.6969

                     34                     35                     36
                      A                      A                      A
 Frequencies --   1311.1268              1348.8315              1367.4982
 Red. masses --      1.5301                 1.4603                 1.5072
 Frc consts  --      1.5497                 1.5654                 1.6606
 IR Inten    --     11.4918                 2.2125                 6.0184

                     37                     38                     39
                      A                      A                      A
 Frequencies --   1411.9325              1463.8815              1492.0425
 Red. masses --      1.3420                 2.3708                 1.0464
 Frc consts  --      1.5763                 2.9934                 1.3724
 IR Inten    --      0.8206                 5.1062                 5.3260

                     40                     41                     42
                      A                      A                      A
 Frequencies --   1496.0028              1519.0275              3016.3558
 Red. masses --      1.1044                 1.1030                 1.0552
 Frc consts  --      1.4563                 1.4995                 5.6566
 IR Inten    --      7.1365                 0.7492                80.6789

                     43                     44                     45
                      A                      A                      A
 Frequencies --   3024.6124              3062.0386              3071.9644
 Red. masses --      1.0388                 1.1106                 1.0892
 Frc consts  --      5.5990                 6.1350                 6.0560
 IR Inten    --     33.3807                36.6998                43.1965

                     46                     47                     48
                      A                      A                      A
 Frequencies --   3079.0551              3120.3848              3122.7095
 Red. masses --      1.0999                 1.0871                 1.0896
 Frc consts  --      6.1436                 6.2364                 6.2601
 IR Inten    --     25.8640                21.8212                30.8997

                     49                     50                     51
                      A                      A                      A
 Frequencies --   3128.2586              3173.6401              3813.0102
 Red. masses --      1.0972                 1.0920                 1.0663
 Frc consts  --      6.3262                 6.4804                 9.1343
 IR Inten    --      8.7779                16.4850                26.5386

 - Thermochemistry -
 -------------------
 Temperature   298.150 Kelvin.  Pressure   1.00000 Atm.
 Atom     1 has atomic number  6 and mass  12.00000

 Molecular mass:   126.06808 amu.
 Principal axes and moments of inertia in atomic units:
                           1         2         3
     Eigenvalues --   616.351111234.583211442.52799
           X            0.99906  -0.04280   0.00749
           Y            0.04270   0.99899   0.01392
           Z           -0.00808  -0.01359   0.99988
 This molecule is an asymmetric top.
 Rotational symmetry number  1.
 Warning -- assumption of classical behavior for rotation
           may cause significant error
 Rotational temperatures (Kelvin)      0.14053     0.07016     0.06004
 Rotational constants (GHZ):           2.92811     1.46182     1.25110
 Zero-point vibrational energy     416897.5 (Joules/Mol)
                                   99.64089 (Kcal/Mol)
 Warning -- explicit consideration of  10 degrees of freedom as
           vibrations may cause significant error
 Vibrational temperatures:    229.77   258.68   309.99   347.35   370.29
          (Kelvin)            412.27   464.38   583.64   685.76   798.84
                              925.60  1029.62  1144.93  1208.80  1232.65
                             1265.80  1315.89  1350.63  1381.25  1418.38
                             1436.44  1507.56  1545.13  1556.00  1605.99
                             1633.98  1670.13  1711.26  1734.46  1776.07
                             1791.85  1837.30  1842.15  1886.42  1940.67
                             1967.52  2031.45  2106.20  2146.71  2152.41
                             2185.54  4339.86  4351.74  4405.59  4419.87
                             4430.07  4489.53  4492.88  4500.86  4566.15
                             5486.06

 Zero-point correction=                           0.158788 (Hartree/Particle)
 Thermal correction to Energy=                    0.166936
 Thermal correction to Enthalpy=                  0.167880
 Thermal correction to Gibbs Free Energy=         0.126599
 Sum of electronic and zero-point Energies=           -422.956687
 Sum of electronic and thermal Energies=              -422.948539
 Sum of electronic and thermal Enthalpies=            -422.947595
 Sum of electronic and thermal Free Energies=         -422.988876

                     E (Thermal)             CV                S
                      KCal/Mol        Cal/Mol-Kelvin    Cal/Mol-Kelvin
 Total                  104.754             32.047             86.884
 Electronic               0.000              0.000              0.000
 Translational            0.889              2.981             40.409
 Rotational               0.889              2.981             28.486
 Vibrational            102.976             26.086             17.989
 Vibration     1          0.622              1.892              2.553
 Vibration     2          0.629              1.867              2.331
 Vibration     3          0.645              1.817              1.997
 Vibration     4          0.658              1.777              1.792
 Vibration     5          0.667              1.750              1.680
 Vibration     6          0.684              1.699              1.494
 Vibration     7          0.708              1.630              1.296
 Vibration     8          0.771              1.458              0.942
 Vibration     9          0.833              1.302              0.719
 Vibration    10          0.911              1.128              0.533

 Optimization completed.
    -- Stationary point found.
 Normal termination of Gaussian 09 at Mon Jan 27 23:37:24 2020.
