 Gaussian 09, Revision D.01,
 Gaussian 09:  ES64L-G09RevD.01 24-Apr-2013

 -----------------------------
 # b3lyp 6-31G(2df,p) opt Freq
 -----------------------------

 -----
 titel
 -----
 Symbolic Z-matrix:
 Charge =  0 Multiplicity = 1

 SCF Done:  E(RB3LYP) =  -423.125238071     A.U. after   14 cycles
 SCF Done:  E(RB3LYP) =  -423.125237971     A.U. after    7 cycles
 SCF Done:  E(RB3LYP) =  -423.125238141     A.U. after    7 cycles
 SCF Done:  E(RB3LYP) =  -423.125237927     A.U. after    7 cycles
 SCF Done:  E(RB3LYP) =  -423.125238162     A.U. after    7 cycles
 Optimization completed.
    -- Stationary point found.
 Normal termination of Gaussian 09 at Tue Jan 28 12:56:50 2020.

 ----------------------------------------------------------------------
 #N Geom=AllCheck Guess=TCheck SCRF=Check GenChk RB3LYP/6-31G(2df,p) Fr
 eq
 ----------------------------------------------------------------------

 Structure from the checkpoint file:  "/scratch/puck/g09_8fc53cd0-8662-41d8-b71f-f46b84e46b23/Gau-1447.chk"
 -----
 titel
 -----
 Charge =  0 Multiplicity = 1

                         Standard orientation:
 ---------------------------------------------------------------------
 Center     Atomic      Atomic             Coordinates (Angstroms)
 Number     Number       Type             X           Y           Z
 ---------------------------------------------------------------------
      1          8           0        3.250726    0.280593   -0.386371
      2          6           0        2.321257   -0.599028    0.223149
      3          6           0        0.907393   -0.371076   -0.259386
      4          6           0        0.035880    0.675409    0.380163
      5          6           0       -0.929519    1.496530   -0.448468
      6          8           0       -2.115626    1.811284    0.258159
      7          6           0       -0.259132   -0.804641    0.616797
      8          6           0       -1.432307   -1.404467    0.050650
      9          6           0       -2.437543   -1.884242   -0.407230
     10          1           0        2.968036    1.181061   -0.194302
     11          1           0        2.654552   -1.608354   -0.040292
     12          1           0        2.351922   -0.522025    1.322850
     13          1           0        0.768202   -0.514681   -1.327307
     14          1           0        0.438101    1.190660    1.249777
     15          1           0       -0.470137    2.454865   -0.714295
     16          1           0       -1.149920    0.967495   -1.387036
     17          1           0       -2.579769    0.978269    0.402813
     18          1           0        0.009283   -1.181452    1.600358
     19          1           0       -3.307242   -2.331757   -0.820920
 ---------------------------------------------------------------------

 SCF Done:  E(RB3LYP) =  -423.125238162     A.U. after    1 cycles

 The electronic state is 1-A.
 Alpha  occ. eigenvalues --  -19.14113 -19.13094 -10.23837 -10.23221 -10.22477
 Alpha  occ. eigenvalues --  -10.20859 -10.20736 -10.19409 -10.18242  -1.02305
 Alpha  occ. eigenvalues --   -1.01403  -0.88775  -0.75856  -0.71886  -0.68870
 Alpha  occ. eigenvalues --   -0.62733  -0.58842  -0.54324  -0.52441  -0.49858
 Alpha  occ. eigenvalues --   -0.49409  -0.46708  -0.44446  -0.43393  -0.40294
 Alpha  occ. eigenvalues --   -0.38894  -0.36175  -0.34241  -0.33386  -0.31855
 Alpha  occ. eigenvalues --   -0.28250  -0.27114  -0.26613  -0.25238
 Alpha virt. eigenvalues --    0.03527   0.03738   0.07421   0.08872   0.09503
 Alpha virt. eigenvalues --    0.11302   0.12421   0.12796   0.14091   0.16273
 Alpha virt. eigenvalues --    0.16705   0.17505   0.18003   0.20660   0.22089

 Mulliken charges:
               1
     1  O   -0.412784
     2  C   -0.084866
     3  C   -0.075566
     4  C   -0.051381
     5  C   -0.090353
     6  O   -0.420818
     7  C   -0.231800
     8  C    0.305503
     9  C   -0.446592
    10  H    0.283947
    11  H    0.120726
    12  H    0.085627
    13  H    0.108341
    14  H    0.095123
    15  H    0.108548
    16  H    0.099225
    17  H    0.289270
    18  H    0.116247
    19  H    0.201606
 Sum of Mulliken charges =   0.00000

 Dipole moment (field-independent basis, Debye):
    X=             -0.1523    Y=             -0.6749    Z=              0.4116  Tot=              0.8050
 Quadrupole moment (field-independent basis, Debye-Ang):
   XX=            -58.4882   YY=            -54.4817   ZZ=            -52.4289
   XY=              7.0169   XZ=              4.5835   YZ=             -0.3848

  Exact polarizability:  97.696  11.343  78.425   5.122   2.158  61.353
 Approx polarizability: 139.107  21.262 114.027   9.325   7.136  97.060

                      1                      2                      3
                      A                      A                      A
 Frequencies --     77.1980                83.3170               126.5661
 Red. masses --      4.6265                 4.2715                 4.3365
 Frc consts  --      0.0162                 0.0175                 0.0409
 IR Inten    --      3.5604                 1.2924                 0.4389

                      4                      5                      6
                      A                      A                      A
 Frequencies --    148.0158               186.4851               211.4705
 Red. masses --      2.6224                 3.2938                 2.6086
 Frc consts  --      0.0339                 0.0675                 0.0687
 IR Inten    --      1.6258                 1.0098                 6.7269

                      7                      8                      9
                      A                      A                      A
 Frequencies --    316.4486               338.4498               382.2651
 Red. masses --      1.9022                 1.6350                 2.7466
 Frc consts  --      0.1122                 0.1103                 0.2365
 IR Inten    --     63.7483                32.2022                35.8077

                     10                     11                     12
                      A                      A                      A
 Frequencies --    410.2191               413.8198               454.3829
 Red. masses --      5.2058                 1.3326                 2.9610
 Frc consts  --      0.5161                 0.1344                 0.3602
 IR Inten    --      7.9654                27.7854                48.6362

                     13                     14                     15
                      A                      A                      A
 Frequencies --    543.7940               595.8340               629.1178
 Red. masses --      4.1066                 1.2615                 3.0166
 Frc consts  --      0.7155                 0.2639                 0.7035
 IR Inten    --      1.6882                48.1287                 1.4369

                     16                     17                     18
                      A                      A                      A
 Frequencies --    655.4339               787.8702               844.2241
 Red. masses --      1.2337                 3.5085                 2.3611
 Frc consts  --      0.3123                 1.2832                 0.9915
 IR Inten    --     44.2284                10.3591                 7.7039

                     19                     20                     21
                      A                      A                      A
 Frequencies --    905.7835               966.9725               985.4106
 Red. masses --      1.8742                 1.5889                 1.7610
 Frc consts  --      0.9060                 0.8753                 1.0075
 IR Inten    --      2.5725                 1.7789                18.5498

                     22                     23                     24
                      A                      A                      A
 Frequencies --   1016.1589              1042.2032              1072.2302
 Red. masses --      2.2903                 4.4585                 4.4362
 Frc consts  --      1.3934                 2.8533                 3.0050
 IR Inten    --      3.7892                74.0072                57.6301

                     25                     26                     27
                      A                      A                      A
 Frequencies --   1099.9035              1112.4282              1128.7801
 Red. masses --      3.5597                 1.2016                 1.6719
 Frc consts  --      2.5373                 0.8761                 1.2551
 IR Inten    --    118.8878                 2.5002                 9.5471

                     28                     29                     30
                      A                      A                      A
 Frequencies --   1149.5053              1203.3926              1215.6440
 Red. masses --      1.7267                 1.2185                 1.4287
 Frc consts  --      1.3443                 1.0397                 1.2440
 IR Inten    --     10.6165                11.0843                 6.3720

                     31                     32                     33
                      A                      A                      A
 Frequencies --   1249.0634              1308.3818              1348.1326
 Red. masses --      1.3696                 1.2577                 1.3512
 Frc consts  --      1.2589                 1.2685                 1.4469
 IR Inten    --      4.2379                 9.5435                 1.8029

                     34                     35                     36
                      A                      A                      A
 Frequencies --   1382.4284              1405.2375              1422.0986
 Red. masses --      1.2616                 1.2359                 1.2537
 Frc consts  --      1.4205                 1.4379                 1.4938
 IR Inten    --      3.4263                 8.1192                64.2712

                     37                     38                     39
                      A                      A                      A
 Frequencies --   1427.4203              1461.9300              1497.5382
 Red. masses --      1.2524                 2.6118                 1.0839
 Frc consts  --      1.5034                 3.2888                 1.4322
 IR Inten    --     73.6592                 4.8350                 2.0105

                     40                     41                     42
                      A                      A                      A
 Frequencies --   1504.6525              2228.2586              2965.4022
 Red. masses --      1.0911                 6.0382                 1.0714
 Frc consts  --      1.4555                17.6639                 5.5508
 IR Inten    --      0.9837                15.3129                51.3078

                     43                     44                     45
                      A                      A                      A
 Frequencies --   3000.5541              3068.3691              3073.0323
 Red. masses --      1.0665                 1.0959                 1.0908
 Frc consts  --      5.6574                 6.0789                 6.0691
 IR Inten    --     35.3574                31.9864                27.6120

                     46                     47                     48
                      A                      A                      A
 Frequencies --   3133.3209              3141.6633              3157.3536
 Red. masses --      1.0866                 1.0890                 1.0870
 Frc consts  --      6.2852                 6.3326                 6.3846
 IR Inten    --      5.9318                 9.3336                12.0096

                     49                     50                     51
                      A                      A                      A
 Frequencies --   3501.6973              3791.3919              3808.7570
 Red. masses --      1.1595                 1.0659                 1.0660
 Frc consts  --      8.3768                 9.0273                 9.1111
 IR Inten    --     87.4702                26.0933                13.5805

 - Thermochemistry -
 -------------------
 Temperature   298.150 Kelvin.  Pressure   1.00000 Atm.
 Atom     1 has atomic number  8 and mass  15.99491

 Molecular mass:   126.06808 amu.
 Principal axes and moments of inertia in atomic units:
                           1         2         3
     Eigenvalues --   762.362431751.540112324.33918
           X            0.99991   0.00388   0.01261
           Y           -0.00378   0.99996  -0.00833
           Z           -0.01265   0.00828   0.99989
 This molecule is an asymmetric top.
 Rotational symmetry number  1.
 Warning -- assumption of classical behavior for rotation
           may cause significant error
 Rotational temperatures (Kelvin)      0.11361     0.04945     0.03726
 Rotational constants (GHZ):           2.36730     1.03037     0.77645
 Zero-point vibrational energy     412592.1 (Joules/Mol)
                                   98.61187 (Kcal/Mol)
 Warning -- explicit consideration of  14 degrees of freedom as
           vibrations may cause significant error
 Vibrational temperatures:    111.07   119.87   182.10   212.96   268.31
          (Kelvin)            304.26   455.30   486.95   549.99   590.21
                              595.39   653.75   782.40   857.27   905.16
                              943.02  1133.57  1214.65  1303.22  1391.26
                             1417.78  1462.02  1499.50  1542.70  1582.51
                             1600.53  1624.06  1653.88  1731.41  1749.04
                             1797.12  1882.47  1939.66  1989.00  2021.82
                             2046.08  2053.74  2103.39  2154.62  2164.86
                             3205.96  4266.55  4317.12  4414.69  4421.40
                             4508.14  4520.15  4542.72  5038.16  5454.96
                             5479.94

 Zero-point correction=                           0.157148 (Hartree/Particle)
 Thermal correction to Energy=                    0.167151
 Thermal correction to Enthalpy=                  0.168095
 Thermal correction to Gibbs Free Energy=         0.121943
 Sum of electronic and zero-point Energies=           -422.968090
 Sum of electronic and thermal Energies=              -422.958087
 Sum of electronic and thermal Enthalpies=            -422.957143
 Sum of electronic and thermal Free Energies=         -423.003295

                     E (Thermal)             CV                S
                      KCal/Mol        Cal/Mol-Kelvin    Cal/Mol-Kelvin
 Total                  104.889             36.560             97.135
 Electronic               0.000              0.000              0.000
 Translational            0.889              2.981             40.409
 Rotational               0.889              2.981             29.519
 Vibrational            103.112             30.598             27.208
 Vibration     1          0.599              1.964              3.961
 Vibration     2          0.600              1.961              3.811
 Vibration     3          0.611              1.927              2.998
 Vibration     4          0.617              1.905              2.698
 Vibration     5          0.632              1.858              2.262
 Vibration     6          0.643              1.823              2.031
 Vibration     7          0.703              1.642              1.328
 Vibration     8          0.719              1.599              1.219
 Vibration     9          0.752              1.508              1.030
 Vibration    10          0.774              1.448              0.926
 Vibration    11          0.777              1.440              0.913
 Vibration    12          0.813              1.351              0.783
 Vibration    13          0.899              1.153              0.557
 Vibration    14          0.954              1.041              0.457

 Optimization completed.
    -- Stationary point found.
 Normal termination of Gaussian 09 at Tue Jan 28 13:39:56 2020.
