 Gaussian 09, Revision D.01,
 Gaussian 09:  ES64L-G09RevD.01 24-Apr-2013

 -----------------------------
 # b3lyp 6-31G(2df,p) opt Freq
 -----------------------------

 -----
 titel
 -----
 Symbolic Z-matrix:
 Charge =  0 Multiplicity = 1

 SCF Done:  E(RB3LYP) =  -423.213514260     A.U. after   14 cycles
 Optimization completed.
    -- Stationary point found.
 Normal termination of Gaussian 09 at Mon Jan 27 22:08:27 2020.

 ----------------------------------------------------------------------
 #N Geom=AllCheck Guess=TCheck SCRF=Check GenChk RB3LYP/6-31G(2df,p) Fr
 eq
 ----------------------------------------------------------------------

 Structure from the checkpoint file:  "/scratch/puck/g09_e2671261-1db4-4987-b17d-9a7c3cffb117/Gau-51332.chk"
 -----
 titel
 -----
 Charge =  0 Multiplicity = 1

                         Standard orientation:
 ---------------------------------------------------------------------
 Center     Atomic      Atomic             Coordinates (Angstroms)
 Number     Number       Type             X           Y           Z
 ---------------------------------------------------------------------
      1          6           0       -0.923183    2.015762   -0.037446
      2          6           0       -0.680251    0.610681   -0.573182
      3          6           0       -1.582743   -0.492340   -0.016682
      4          8           0       -2.747052   -0.723909    0.058479
      5          8           0       -0.542782   -1.246614    0.461803
      6          6           0        0.453825   -0.271883    0.008612
      7          6           0        1.610014   -0.780991   -0.869984
      8          6           0        2.562404    0.152868   -0.069998
      9          6           0        1.473872    0.252192    1.036544
     10          1           0       -0.147989    2.708551   -0.379276
     11          1           0       -1.889304    2.386080   -0.391701
     12          1           0       -0.940837    2.032358    1.055952
     13          1           0       -0.683918    0.608296   -1.667867
     14          1           0        1.806629   -1.836567   -0.664431
     15          1           0        1.524128   -0.639014   -1.950128
     16          1           0        3.530274   -0.257127    0.221429
     17          1           0        2.725015    1.108104   -0.575191
     18          1           0        1.624182   -0.489110    1.825793
     19          1           0        1.286865    1.224881    1.495980
 ---------------------------------------------------------------------

 SCF Done:  E(RB3LYP) =  -423.213514260     A.U. after    1 cycles

 The electronic state is 1-A.
 Alpha  occ. eigenvalues --  -19.17473 -19.12915 -10.30127 -10.25646 -10.21166
 Alpha  occ. eigenvalues --  -10.19819 -10.19624 -10.19559 -10.19521  -1.10056
 Alpha  occ. eigenvalues --   -1.02729  -0.85671  -0.79099  -0.68550  -0.67384
 Alpha  occ. eigenvalues --   -0.65050  -0.56259  -0.52743  -0.51966  -0.49766
 Alpha  occ. eigenvalues --   -0.47261  -0.45657  -0.43579  -0.41919  -0.40236
 Alpha  occ. eigenvalues --   -0.39334  -0.37831  -0.37134  -0.36029  -0.33626
 Alpha  occ. eigenvalues --   -0.33367  -0.31647  -0.28787  -0.26627
 Alpha virt. eigenvalues --    0.01396   0.06702   0.07491   0.10459   0.10968
 Alpha virt. eigenvalues --    0.12953   0.13917   0.14882   0.15982   0.16227
 Alpha virt. eigenvalues --    0.17674   0.17883   0.18237   0.19887   0.20373

 Mulliken charges:
               1
     1  C   -0.412667
     2  C   -0.276511
     3  C    0.444814
     4  O   -0.330956
     5  O   -0.282434
     6  C    0.456922
     7  C   -0.290396
     8  C   -0.215292
     9  C   -0.288453
    10  H    0.124433
    11  H    0.143055
    12  H    0.132305
    13  H    0.111248
    14  H    0.125127
    15  H    0.105177
    16  H    0.111004
    17  H    0.110132
    18  H    0.124980
    19  H    0.107510
 Sum of Mulliken charges =   0.00000

 Dipole moment (field-independent basis, Debye):
    X=              3.5019    Y=              2.2072    Z=             -0.8584  Tot=              4.2275
 Quadrupole moment (field-independent basis, Debye-Ang):
   XX=            -61.1152   YY=            -53.6407   ZZ=            -51.4775
   XY=             -4.6045   XZ=              1.1727   YZ=              0.7194

  Exact polarizability:  90.191  -0.853  70.877   0.720  -0.156  64.535
 Approx polarizability: 125.545   1.364 102.424   0.967  -2.867  97.708

                      1                      2                      3
                      A                      A                      A
 Frequencies --     80.9805               103.7312               195.9078
 Red. masses --      4.9164                 2.2869                 2.8994
 Frc consts  --      0.0190                 0.0145                 0.0656
 IR Inten    --      0.8142                 0.4851                 1.8728

                      4                      5                      6
                      A                      A                      A
 Frequencies --    201.6270               233.3565               305.5273
 Red. masses --      1.3173                 1.7419                 2.9400
 Frc consts  --      0.0316                 0.0559                 0.1617
 IR Inten    --      0.2765                 0.4030                 2.5328

                      7                      8                      9
                      A                      A                      A
 Frequencies --    346.8592               446.6814               467.2141
 Red. masses --      3.0304                 4.6600                 4.1275
 Frc consts  --      0.2148                 0.5478                 0.5308
 IR Inten    --      1.8394                 2.0193                 1.3436

                     10                     11                     12
                      A                      A                      A
 Frequencies --    548.9226               691.5822               700.8712
 Red. masses --      3.3319                 2.6929                 1.9454
 Frc consts  --      0.5915                 0.7589                 0.5630
 IR Inten    --      3.7628                 2.1724                 3.7421

                     13                     14                     15
                      A                      A                      A
 Frequencies --    776.0060               783.5592               836.3395
 Red. masses --      2.6906                 1.2964                 2.6222
 Frc consts  --      0.9546                 0.4690                 1.0807
 IR Inten    --      3.6311                 0.2755                11.7721

                     16                     17                     18
                      A                      A                      A
 Frequencies --    843.5040               899.9192               926.9196
 Red. masses --      3.2549                 2.7504                 2.6452
 Frc consts  --      1.3645                 1.3124                 1.3390
 IR Inten    --     28.3682                29.3572                 0.6665

                     19                     20                     21
                      A                      A                      A
 Frequencies --    949.2193               997.6506              1040.1854
 Red. masses --      2.9545                 1.4784                 1.1746
 Frc consts  --      1.5684                 0.8669                 0.7488
 IR Inten    --     26.6254                 5.4110                 0.8943

                     22                     23                     24
                      A                      A                      A
 Frequencies --   1067.8566              1083.9928              1109.3958
 Red. masses --      1.9503                 2.4570                 3.0550
 Frc consts  --      1.3103                 1.7010                 2.2153
 IR Inten    --     37.7739                86.6827                27.0997

                     25                     26                     27
                      A                      A                      A
 Frequencies --   1155.2672              1180.4811              1199.4662
 Red. masses --      2.6353                 1.9918                 1.8113
 Frc consts  --      2.0722                 1.6353                 1.5354
 IR Inten    --      6.5709                19.0471                16.2621

                     28                     29                     30
                      A                      A                      A
 Frequencies --   1207.2613              1246.4963              1249.9285
 Red. masses --      1.6833                 1.5461                 1.3153
 Frc consts  --      1.4455                 1.4154                 1.2107
 IR Inten    --     17.5093                 6.3329                 3.5910

                     31                     32                     33
                      A                      A                      A
 Frequencies --   1274.8705              1287.7803              1309.3284
 Red. masses --      1.5108                 1.7887                 2.0470
 Frc consts  --      1.4468                 1.7477                 2.0676
 IR Inten    --      2.8310                25.5953                30.2738

                     34                     35                     36
                      A                      A                      A
 Frequencies --   1354.2657              1411.5920              1469.0706
 Red. masses --      1.9269                 1.2219                 1.0900
 Frc consts  --      2.0822                 1.4345                 1.3860
 IR Inten    --      5.4831                 4.2634                 4.3741

                     37                     38                     39
                      A                      A                      A
 Frequencies --   1483.5546              1494.6155              1497.4647
 Red. masses --      1.0837                 1.0529                 1.0510
 Frc consts  --      1.4053                 1.3858                 1.3885
 IR Inten    --      3.4799                 6.0743                 4.8397

                     40                     41                     42
                      A                      A                      A
 Frequencies --   1504.5949              1933.6603              3041.6636
 Red. masses --      1.1289                12.9275                 1.0352
 Frc consts  --      1.5057                28.4791                 5.6430
 IR Inten    --      2.9371               457.2718                13.8728

                     43                     44                     45
                      A                      A                      A
 Frequencies --   3061.5059              3064.0129              3068.7565
 Red. masses --      1.0612                 1.0794                 1.0585
 Frc consts  --      5.8602                 5.9704                 5.8733
 IR Inten    --     18.8999                23.2971                13.1713

                     46                     47                     48
                      A                      A                      A
 Frequencies --   3073.0518              3112.1859              3112.6775
 Red. masses --      1.0629                 1.1052                 1.1035
 Frc consts  --      5.9141                 6.3071                 6.2992
 IR Inten    --     20.5776                20.5411                 3.1124

                     49                     50                     51
                      A                      A                      A
 Frequencies --   3118.1313              3122.0404              3134.3214
 Red. masses --      1.1043                 1.1047                 1.1074
 Frc consts  --      6.3261                 6.3444                 6.4095
 IR Inten    --      5.9472                23.2856                34.6826

 - Thermochemistry -
 -------------------
 Temperature   298.150 Kelvin.  Pressure   1.00000 Atm.
 Atom     1 has atomic number  6 and mass  12.00000

 Molecular mass:   126.06808 amu.
 Principal axes and moments of inertia in atomic units:
                           1         2         3
     Eigenvalues --   594.452291386.581111667.38500
           X            0.99933  -0.03654   0.00204
           Y            0.03648   0.99908   0.02271
           Z           -0.00287  -0.02262   0.99974
 This molecule is an asymmetric top.
 Rotational symmetry number  1.
 Warning -- assumption of classical behavior for rotation
           may cause significant error
 Rotational temperatures (Kelvin)      0.14570     0.06247     0.05195
 Rotational constants (GHZ):           3.03597     1.30158     1.08238
 Zero-point vibrational energy     417531.7 (Joules/Mol)
                                   99.79248 (Kcal/Mol)
 Warning -- explicit consideration of  10 degrees of freedom as
           vibrations may cause significant error
 Vibrational temperatures:    116.51   149.25   281.87   290.10   335.75
          (Kelvin)            439.59   499.05   642.67   672.22   789.78
                              995.03  1008.40  1116.50  1127.37  1203.30
                             1213.61  1294.78  1333.63  1365.71  1435.39
                             1496.59  1536.41  1559.62  1596.17  1662.17
                             1698.45  1725.76  1736.98  1793.43  1798.37
                             1834.25  1852.83  1883.83  1948.48  2030.96
                             2113.66  2134.50  2150.42  2154.51  2164.77
                             2782.10  4376.27  4404.82  4408.43  4415.25
                             4421.43  4477.74  4478.44  4486.29  4491.91
                             4509.58

 Zero-point correction=                           0.159029 (Hartree/Particle)
 Thermal correction to Energy=                    0.167485
 Thermal correction to Enthalpy=                  0.168430
 Thermal correction to Gibbs Free Energy=         0.125771
 Sum of electronic and zero-point Energies=           -423.054485
 Sum of electronic and thermal Energies=              -423.046029
 Sum of electronic and thermal Enthalpies=            -423.045085
 Sum of electronic and thermal Free Energies=         -423.087743

                     E (Thermal)             CV                S
                      KCal/Mol        Cal/Mol-Kelvin    Cal/Mol-Kelvin
 Total                  105.099             31.927             89.782
 Electronic               0.000              0.000              0.000
 Translational            0.889              2.981             40.409
 Rotational               0.889              2.981             28.710
 Vibrational            103.321             25.965             20.664
 Vibration     1          0.600              1.962              3.867
 Vibration     2          0.605              1.946              3.383
 Vibration     3          0.636              1.846              2.171
 Vibration     4          0.639              1.838              2.118
 Vibration     5          0.654              1.790              1.853
 Vibration     6          0.696              1.663              1.386
 Vibration     7          0.725              1.582              1.180
 Vibration     8          0.806              1.368              0.806
 Vibration     9          0.824              1.323              0.745
 Vibration    10          0.904              1.142              0.546

 Optimization completed.
    -- Stationary point found.
 Normal termination of Gaussian 09 at Mon Jan 27 23:48:56 2020.
