 Gaussian 09, Revision D.01,
 Gaussian 09:  ES64L-G09RevD.01 24-Apr-2013

 -----------------------------
 # b3lyp 6-31G(2df,p) opt Freq
 -----------------------------

 -----
 titel
 -----
 Symbolic Z-matrix:
 Charge =  0 Multiplicity = 1

 SCF Done:  E(RB3LYP) =  -423.203901269     A.U. after   14 cycles
 Optimization completed.
    -- Stationary point found.
 Normal termination of Gaussian 09 at Tue Jan 28 08:14:05 2020.

 ----------------------------------------------------------------------
 #N Geom=AllCheck Guess=TCheck SCRF=Check GenChk RB3LYP/6-31G(2df,p) Fr
 eq
 ----------------------------------------------------------------------

 Structure from the checkpoint file:  "/scratch/puck/g09_256f460b-7b38-46c6-84b5-49950daeb1fe/Gau-17912.chk"
 -----
 titel
 -----
 Charge =  0 Multiplicity = 1

                         Standard orientation:
 ---------------------------------------------------------------------
 Center     Atomic      Atomic             Coordinates (Angstroms)
 Number     Number       Type             X           Y           Z
 ---------------------------------------------------------------------
      1          6           0        2.289050   -0.708932    0.581820
      2          6           0        1.053925   -0.511301   -0.286462
      3          8           0        0.075507   -1.464181    0.109579
      4          6           0       -1.147566   -1.345660   -0.595241
      5          6           0       -1.834518   -0.033362   -0.272536
      6          6           0       -1.662806    0.514006    1.103636
      7          6           0       -0.909358    1.156933   -0.063157
      8          6           0        0.550064    0.942378   -0.243167
      9          8           0        1.320378    1.858515   -0.436678
     10          1           0        2.034716   -0.587548    1.638896
     11          1           0        2.697091   -1.711912    0.436900
     12          1           0        3.041062    0.035067    0.313803
     13          1           0        1.321906   -0.685265   -1.345306
     14          1           0       -0.978901   -1.434384   -1.681784
     15          1           0       -1.761446   -2.195543   -0.279447
     16          1           0       -2.766104    0.153861   -0.797889
     17          1           0       -2.456916    1.114582    1.531297
     18          1           0       -1.093675   -0.073912    1.812832
     19          1           0       -1.237560    2.146017   -0.361867
 ---------------------------------------------------------------------

 SCF Done:  E(RB3LYP) =  -423.203901269     A.U. after    1 cycles

 The electronic state is 1-A.
 Alpha  occ. eigenvalues --  -19.15103 -19.12366 -10.26453 -10.24117 -10.24084
 Alpha  occ. eigenvalues --  -10.20954 -10.20397 -10.20324 -10.17825  -1.05005
 Alpha  occ. eigenvalues --   -1.03131  -0.87640  -0.77912  -0.70197  -0.67186
 Alpha  occ. eigenvalues --   -0.62041  -0.59340  -0.54123  -0.51325  -0.49525
 Alpha  occ. eigenvalues --   -0.46709  -0.45923  -0.43701  -0.40971  -0.40274
 Alpha  occ. eigenvalues --   -0.39062  -0.37706  -0.37495  -0.36778  -0.33340
 Alpha  occ. eigenvalues --   -0.30555  -0.29488  -0.28336  -0.22999
 Alpha virt. eigenvalues --   -0.01641   0.08200   0.10023   0.11442   0.12262
 Alpha virt. eigenvalues --    0.13117   0.14048   0.15943   0.16553   0.16979
 Alpha virt. eigenvalues --    0.17856   0.18703   0.19464   0.20553   0.22739

 Mulliken charges:
               1
     1  C   -0.404110
     2  C    0.027815
     3  O   -0.260137
     4  C   -0.107385
     5  C   -0.045574
     6  C   -0.292225
     7  C   -0.127039
     8  C    0.371239
     9  O   -0.336876
    10  H    0.125321
    11  H    0.123177
    12  H    0.145353
    13  H    0.097728
    14  H    0.095151
    15  H    0.115668
    16  H    0.098355
    17  H    0.124666
    18  H    0.140868
    19  H    0.108007
 Sum of Mulliken charges =   0.00000

 Dipole moment (field-independent basis, Debye):
    X=             -2.3047    Y=             -1.3327    Z=             -0.1695  Tot=              2.6677
 Quadrupole moment (field-independent basis, Debye-Ang):
   XX=            -50.4385   YY=            -58.9165   ZZ=            -51.6495
   XY=             -4.5100   XZ=              1.1637   YZ=              2.4633

  Exact polarizability:  87.634   2.301  74.714  -1.666   0.938  65.126
 Approx polarizability: 120.199  12.081 112.746  -4.924  -2.504 101.086

                      1                      2                      3
                      A                      A                      A
 Frequencies --     63.7374               178.8875               213.8808
 Red. masses --      3.7847                 3.7324                 1.0445
 Frc consts  --      0.0091                 0.0704                 0.0282
 IR Inten    --      3.5006                 1.0614                 0.5354

                      4                      5                      6
                      A                      A                      A
 Frequencies --    274.5009               296.5433               331.3295
 Red. masses --      2.8750                 2.9196                 2.6477
 Frc consts  --      0.1276                 0.1513                 0.1713
 IR Inten    --      4.5318                 2.9799                 3.1842

                      7                      8                      9
                      A                      A                      A
 Frequencies --    400.8540               436.5478               479.0288
 Red. masses --      4.5558                 3.2266                 4.7892
 Frc consts  --      0.4313                 0.3623                 0.6475
 IR Inten    --     12.9495                 4.7227                 5.4476

                     10                     11                     12
                      A                      A                      A
 Frequencies --    534.5584               623.3766               699.5483
 Red. masses --      4.3754                 5.4779                 2.5597
 Frc consts  --      0.7366                 1.2542                 0.7380
 IR Inten    --      1.4734                 2.8499                 5.5916

                     13                     14                     15
                      A                      A                      A
 Frequencies --    770.2042               779.4686               844.6826
 Red. masses --      2.8477                 2.4580                 1.5882
 Frc consts  --      0.9953                 0.8799                 0.6676
 IR Inten    --      2.1982                 0.1916                16.6831

                     16                     17                     18
                      A                      A                      A
 Frequencies --    881.7092               916.5660               943.6895
 Red. masses --      1.8768                 1.9684                 2.0394
 Frc consts  --      0.8597                 0.9743                 1.0701
 IR Inten    --      3.0482                 4.8722                10.2264

                     19                     20                     21
                      A                      A                      A
 Frequencies --    988.4222              1051.7081              1053.3488
 Red. masses --      2.9208                 1.6782                 1.6639
 Frc consts  --      1.6813                 1.0937                 1.0877
 IR Inten    --     22.4735                55.5025                 4.8680

                     22                     23                     24
                      A                      A                      A
 Frequencies --   1081.1558              1097.2797              1118.2523
 Red. masses --      1.4907                 1.6046                 1.9205
 Frc consts  --      1.0266                 1.1383                 1.4149
 IR Inten    --      8.2382                 3.0421                 3.1953

                     25                     26                     27
                      A                      A                      A
 Frequencies --   1125.2439              1148.8923              1155.5968
 Red. masses --      1.1780                 2.3279                 3.2592
 Frc consts  --      0.8788                 1.8104                 2.5644
 IR Inten    --      0.7296                14.1814                65.5943

                     28                     29                     30
                      A                      A                      A
 Frequencies --   1194.2624              1252.4710              1288.2089
 Red. masses --      1.6413                 1.7054                 1.2185
 Frc consts  --      1.3792                 1.5762                 1.1913
 IR Inten    --      2.3500                46.2534                37.7613

                     31                     32                     33
                      A                      A                      A
 Frequencies --   1335.2724              1342.7836              1364.3605
 Red. masses --      1.7917                 1.3353                 1.6800
 Frc consts  --      1.8822                 1.4185                 1.8425
 IR Inten    --     10.7744                 9.4056                 9.4153

                     34                     35                     36
                      A                      A                      A
 Frequencies --   1385.1897              1397.2804              1412.1288
 Red. masses --      2.2314                 1.2549                 1.3180
 Frc consts  --      2.5226                 1.4435                 1.5485
 IR Inten    --     10.6817                10.3342                 4.2061

                     37                     38                     39
                      A                      A                      A
 Frequencies --   1483.0600              1488.3611              1496.0983
 Red. masses --      1.2675                 1.0959                 1.0651
 Frc consts  --      1.6425                 1.4304                 1.4046
 IR Inten    --      1.5729                10.2489                 0.6750

                     40                     41                     42
                      A                      A                      A
 Frequencies --   1500.4300              1792.0054              2934.5998
 Red. masses --      1.0829                11.9405                 1.0803
 Frc consts  --      1.4364                22.5918                 5.4813
 IR Inten    --      1.3427               186.8431                27.0075

                     43                     44                     45
                      A                      A                      A
 Frequencies --   2966.1001              3052.6964              3071.7392
 Red. masses --      1.0701                 1.0353                 1.0923
 Frc consts  --      5.5468                 5.6842                 6.0726
 IR Inten    --     68.5013                15.5518                32.0568

                     46                     47                     48
                      A                      A                      A
 Frequencies --   3124.8463              3149.7326              3150.3115
 Red. masses --      1.1018                 1.0549                 1.1016
 Frc consts  --      6.3388                 6.1659                 6.4416
 IR Inten    --     19.0759                 9.3242                 6.5234

                     49                     50                     51
                      A                      A                      A
 Frequencies --   3158.2345              3180.5982              3242.9405
 Red. masses --      1.0884                 1.0906                 1.1168
 Frc consts  --      6.3962                 6.5003                 6.9200
 IR Inten    --     13.1302                 6.4897                 2.3843

 - Thermochemistry -
 -------------------
 Temperature   298.150 Kelvin.  Pressure   1.00000 Atm.
 Atom     1 has atomic number  6 and mass  12.00000

 Molecular mass:   126.06808 amu.
 Principal axes and moments of inertia in atomic units:
                           1         2         3
     Eigenvalues --   747.278681049.297361490.20259
           X            0.99643  -0.08354   0.01227
           Y            0.08325   0.99628   0.02238
           Z           -0.01409  -0.02128   0.99967
 This molecule is an asymmetric top.
 Rotational symmetry number  1.
 Warning -- assumption of classical behavior for rotation
           may cause significant error
 Rotational temperatures (Kelvin)      0.11591     0.08254     0.05812
 Rotational constants (GHZ):           2.41508     1.71995     1.21107
 Zero-point vibrational energy     420204.6 (Joules/Mol)
                                  100.43131 (Kcal/Mol)
 Warning -- explicit consideration of  10 degrees of freedom as
           vibrations may cause significant error
 Vibrational temperatures:     91.70   257.38   307.73   394.95   426.66
          (Kelvin)            476.71   576.74   628.09   689.21   769.11
                              896.90  1006.49  1108.15  1121.48  1215.31
                             1268.58  1318.73  1357.76  1422.12  1513.17
                             1515.53  1555.54  1578.74  1608.91  1618.97
                             1653.00  1662.64  1718.28  1802.02  1853.44
                             1921.16  1931.96  1963.01  1992.98  2010.37
                             2031.74  2133.79  2141.42  2152.55  2158.78
                             2578.29  4222.23  4267.55  4392.14  4419.54
                             4495.95  4531.76  4532.59  4543.99  4576.17
                             4665.86

 Zero-point correction=                           0.160047 (Hartree/Particle)
 Thermal correction to Energy=                    0.168109
 Thermal correction to Enthalpy=                  0.169053
 Thermal correction to Gibbs Free Energy=         0.127427
 Sum of electronic and zero-point Energies=           -423.043854
 Sum of electronic and thermal Energies=              -423.035793
 Sum of electronic and thermal Enthalpies=            -423.034848
 Sum of electronic and thermal Free Energies=         -423.076475

                     E (Thermal)             CV                S
                      KCal/Mol        Cal/Mol-Kelvin    Cal/Mol-Kelvin
 Total                  105.490             31.375             87.610
 Electronic               0.000              0.000              0.000
 Translational            0.889              2.981             40.409
 Rotational               0.889              2.981             28.548
 Vibrational            103.712             25.413             18.653
 Vibration     1          0.597              1.972              4.338
 Vibration     2          0.629              1.868              2.340
 Vibration     3          0.644              1.820              2.010
 Vibration     4          0.677              1.720              1.568
 Vibration     5          0.690              1.680              1.436
 Vibration     6          0.714              1.613              1.254
 Vibration     7          0.767              1.468              0.960
 Vibration     8          0.797              1.391              0.838
 Vibration     9          0.835              1.297              0.713
 Vibration    10          0.890              1.174              0.577

 Optimization completed.
    -- Stationary point found.
 Normal termination of Gaussian 09 at Tue Jan 28 09:00:09 2020.
