 Gaussian 09, Revision D.01,
 Gaussian 09:  ES64L-G09RevD.01 24-Apr-2013

 -----------------------------
 # b3lyp 6-31G(2df,p) opt Freq
 -----------------------------

 -----
 titel
 -----
 Symbolic Z-matrix:
 Charge =  0 Multiplicity = 1

 SCF Done:  E(RB3LYP) =  -423.179871931     A.U. after   14 cycles
 Optimization completed.
    -- Stationary point found.
 Normal termination of Gaussian 09 at Mon Jan 27 16:17:06 2020.

 ----------------------------------------------------------------------
 #N Geom=AllCheck Guess=TCheck SCRF=Check GenChk RB3LYP/6-31G(2df,p) Fr
 eq
 ----------------------------------------------------------------------

 Structure from the checkpoint file:  "/scratch/puck/g09_c0122d36-39c4-48ab-8c5f-7916154105f2/Gau-176486.chk"
 -----
 titel
 -----
 Charge =  0 Multiplicity = 1

                         Standard orientation:
 ---------------------------------------------------------------------
 Center     Atomic      Atomic             Coordinates (Angstroms)
 Number     Number       Type             X           Y           Z
 ---------------------------------------------------------------------
      1          6           0       -2.370951   -0.007087   -0.729298
      2          6           0       -1.061117    0.168319    0.030728
      3          6           0       -1.085868    1.389458    0.936133
      4          8           0       -0.757725   -1.054944    0.775756
      5          6           0        0.332197   -1.392444   -0.096704
      6          6           0        1.706191   -0.957269    0.470148
      7          6           0        1.519612    0.390216   -0.261373
      8          8           0        2.183658    1.380551   -0.358762
      9          6           0        0.186705   -0.055110   -0.884450
     10          1           0       -2.331856   -0.886116   -1.378653
     11          1           0       -3.195153   -0.141112   -0.021547
     12          1           0       -2.582760    0.872368   -1.346641
     13          1           0       -1.228898    2.301388    0.347726
     14          1           0       -1.913778    1.307183    1.647762
     15          1           0       -0.157449    1.490519    1.502456
     16          1           0        0.243149   -2.389142   -0.532072
     17          1           0        1.792380   -0.928621    1.558773
     18          1           0        2.553565   -1.514499    0.053948
     19          1           0        0.052720    0.066676   -1.958803
 ---------------------------------------------------------------------

 SCF Done:  E(RB3LYP) =  -423.179871931     A.U. after    1 cycles

 The electronic state is 1-A.
 Alpha  occ. eigenvalues --  -19.14131 -19.13852 -10.27444 -10.25600 -10.24606
 Alpha  occ. eigenvalues --  -10.19899 -10.19378 -10.18339 -10.18079  -1.05436
 Alpha  occ. eigenvalues --   -1.04347  -0.82718  -0.78915  -0.70113  -0.68927
 Alpha  occ. eigenvalues --   -0.61951  -0.56516  -0.52051  -0.50428  -0.47729
 Alpha  occ. eigenvalues --   -0.47047  -0.44430  -0.42897  -0.41514  -0.41148
 Alpha  occ. eigenvalues --   -0.39709  -0.38341  -0.37824  -0.36534  -0.36093
 Alpha  occ. eigenvalues --   -0.31441  -0.30342  -0.25622  -0.24511
 Alpha virt. eigenvalues --   -0.02845   0.07937   0.08981   0.10259   0.12115
 Alpha virt. eigenvalues --    0.12789   0.13822   0.15105   0.15805   0.16035
 Alpha virt. eigenvalues --    0.17427   0.18678   0.19204   0.19455   0.21751

 Mulliken charges:
               1
     1  C   -0.421664
     2  C    0.397618
     3  C   -0.426650
     4  O   -0.335520
     5  C    0.113355
     6  C   -0.369503
     7  C    0.405823
     8  O   -0.301231
     9  C   -0.262803
    10  H    0.120186
    11  H    0.127435
    12  H    0.119001
    13  H    0.126887
    14  H    0.125290
    15  H    0.129349
    16  H    0.086637
    17  H    0.138327
    18  H    0.132538
    19  H    0.094925
 Sum of Mulliken charges =   0.00000

 Dipole moment (field-independent basis, Debye):
    X=             -1.2319    Y=             -1.2436    Z=             -0.8962  Tot=              1.9666
 Quadrupole moment (field-independent basis, Debye-Ang):
   XX=            -55.7272   YY=            -55.2924   ZZ=            -52.4278
   XY=             -7.7481   XZ=              1.9835   YZ=              2.7085

  Exact polarizability:  85.965  -2.564  75.552   2.598  -0.075  65.340
 Approx polarizability: 115.742   3.627 116.336   0.200  -4.519 100.090

                      1                      2                      3
                      A                      A                      A
 Frequencies --     81.8932               127.2380               190.5618
 Red. masses --      3.7064                 4.0733                 1.1297
 Frc consts  --      0.0146                 0.0389                 0.0242
 IR Inten    --      4.9330                 2.7438                 0.5121

                      4                      5                      6
                      A                      A                      A
 Frequencies --    224.9859               258.3229               328.3262
 Red. masses --      1.6535                 1.3056                 2.5135
 Frc consts  --      0.0493                 0.0513                 0.1596
 IR Inten    --      0.2970                 0.8528                 0.5530

                      7                      8                      9
                      A                      A                      A
 Frequencies --    370.9230               377.7916               447.2401
 Red. masses --      2.6286                 2.4017                 4.0815
 Frc consts  --      0.2131                 0.2020                 0.4810
 IR Inten    --      2.2091                 0.6567                 0.9526

                     10                     11                     12
                      A                      A                      A
 Frequencies --    453.3222               529.9031               598.1124
 Red. masses --      3.3856                 2.3152                 4.0310
 Frc consts  --      0.4099                 0.3830                 0.8496
 IR Inten    --      7.8796                 1.6137                 2.8005

                     13                     14                     15
                      A                      A                      A
 Frequencies --    689.1186               776.3789               831.9777
 Red. masses --      3.4302                 2.6792                 1.7980
 Frc consts  --      0.9598                 0.9515                 0.7333
 IR Inten    --      1.1130                 4.1781                 4.1083

                     16                     17                     18
                      A                      A                      A
 Frequencies --    852.7417               886.3186               930.8695
 Red. masses --      3.5506                 2.5759                 1.5337
 Frc consts  --      1.5212                 1.1922                 0.7830
 IR Inten    --     14.3677                14.5192                 0.1386

                     19                     20                     21
                      A                      A                      A
 Frequencies --    945.4769               974.4271               978.8394
 Red. masses --      3.0595                 2.0096                 2.2974
 Frc consts  --      1.6114                 1.1242                 1.2969
 IR Inten    --      5.0823                 3.9158                10.5912

                     22                     23                     24
                      A                      A                      A
 Frequencies --   1002.6963              1032.7298              1059.2298
 Red. masses --      1.5408                 2.7954                 3.1479
 Frc consts  --      0.9127                 1.7566                 2.0809
 IR Inten    --      4.7087                44.4749                65.3793

                     25                     26                     27
                      A                      A                      A
 Frequencies --   1108.1147              1140.7914              1166.0393
 Red. masses --      1.4713                 2.1507                 1.6523
 Frc consts  --      1.0645                 1.6491                 1.3237
 IR Inten    --     11.3323                22.8161                20.7693

                     28                     29                     30
                      A                      A                      A
 Frequencies --   1171.3255              1224.2872              1235.0577
 Red. masses --      1.7934                 1.9304                 1.9528
 Frc consts  --      1.4497                 1.7047                 1.7551
 IR Inten    --      8.5713                 3.0955                39.6491

                     31                     32                     33
                      A                      A                      A
 Frequencies --   1272.2067              1283.4921              1327.0040
 Red. masses --      2.4435                 2.6833                 1.3806
 Frc consts  --      2.3301                 2.6044                 1.4324
 IR Inten    --     56.6513                 9.2126                10.7083

                     34                     35                     36
                      A                      A                      A
 Frequencies --   1401.4181              1417.3422              1417.9803
 Red. masses --      1.3048                 1.1787                 1.1605
 Frc consts  --      1.5099                 1.3951                 1.3748
 IR Inten    --     10.7187                14.9920                 4.8582

                     37                     38                     39
                      A                      A                      A
 Frequencies --   1471.6789              1479.2827              1492.4530
 Red. masses --      1.0483                 1.0472                 1.0652
 Frc consts  --      1.3377                 1.3501                 1.3979
 IR Inten    --      0.6556                 2.1394                 0.7570

                     40                     41                     42
                      A                      A                      A
 Frequencies --   1502.8158              1887.4415              3033.9455
 Red. masses --      1.0538                12.7168                 1.0347
 Frc consts  --      1.4023                26.6917                 5.6115
 IR Inten    --      4.8738               251.9736                13.7017

                     43                     44                     45
                      A                      A                      A
 Frequencies --   3042.2554              3049.5237              3095.6746
 Red. masses --      1.0361                 1.0619                 1.0892
 Frc consts  --      5.6497                 5.8185                 6.1500
 IR Inten    --     12.6119                 6.1163                38.8828

                     46                     47                     48
                      A                      A                      A
 Frequencies --   3105.7175              3112.9712              3115.6229
 Red. masses --      1.1016                 1.1010                 1.1019
 Frc consts  --      6.2601                 6.2864                 6.3018
 IR Inten    --      1.4290                26.4505                17.6199

                     49                     50                     51
                      A                      A                      A
 Frequencies --   3120.2061              3123.8662              3127.8581
 Red. masses --      1.1018                 1.0909                 1.1010
 Frc consts  --      6.3201                 6.2723                 6.3463
 IR Inten    --      9.6686                12.4410                19.9901

 - Thermochemistry -
 -------------------
 Temperature   298.150 Kelvin.  Pressure   1.00000 Atm.
 Atom     1 has atomic number  6 and mass  12.00000

 Molecular mass:   126.06808 amu.
 Principal axes and moments of inertia in atomic units:
                           1         2         3
     Eigenvalues --   656.370511213.442631465.44781
           X            0.99696  -0.07487   0.02155
           Y            0.07335   0.99525   0.06405
           Z           -0.02624  -0.06228   0.99771
 This molecule is an asymmetric top.
 Rotational symmetry number  1.
 Warning -- assumption of classical behavior for rotation
           may cause significant error
 Rotational temperatures (Kelvin)      0.13196     0.07138     0.05910
 Rotational constants (GHZ):           2.74958     1.48729     1.23153
 Zero-point vibrational energy     411968.7 (Joules/Mol)
                                   98.46289 (Kcal/Mol)
 Warning -- explicit consideration of  12 degrees of freedom as
           vibrations may cause significant error
 Vibrational temperatures:    117.83   183.07   274.18   323.70   371.67
          (Kelvin)            472.39   533.67   543.56   643.48   652.23
                              762.41   860.55   991.49  1117.03  1197.03
                             1226.90  1275.21  1339.31  1360.33  1401.98
                             1408.33  1442.65  1485.87  1523.99  1594.33
                             1641.34  1677.67  1685.27  1761.47  1776.97
                             1830.42  1846.66  1909.26  2016.33  2039.24
                             2040.15  2117.42  2128.36  2147.30  2162.21
                             2715.60  4365.17  4377.12  4387.58  4453.98
                             4468.43  4478.87  4482.68  4489.28  4494.54
                             4500.28

 Zero-point correction=                           0.156911 (Hartree/Particle)
 Thermal correction to Energy=                    0.165574
 Thermal correction to Enthalpy=                  0.166518
 Thermal correction to Gibbs Free Energy=         0.123836
 Sum of electronic and zero-point Energies=           -423.022961
 Sum of electronic and thermal Energies=              -423.014298
 Sum of electronic and thermal Enthalpies=            -423.013354
 Sum of electronic and thermal Free Energies=         -423.056036

                     E (Thermal)             CV                S
                      KCal/Mol        Cal/Mol-Kelvin    Cal/Mol-Kelvin
 Total                  103.899             33.267             89.832
 Electronic               0.000              0.000              0.000
 Translational            0.889              2.981             40.409
 Rotational               0.889              2.981             28.547
 Vibrational            102.122             27.306             20.876
 Vibration     1          0.600              1.962              3.845
 Vibration     2          0.611              1.926              2.987
 Vibration     3          0.634              1.853              2.222
 Vibration     4          0.650              1.803              1.919
 Vibration     5          0.667              1.749              1.673
 Vibration     6          0.712              1.619              1.268
 Vibration     7          0.743              1.532              1.076
 Vibration     8          0.748              1.517              1.048
 Vibration     9          0.806              1.367              0.804
 Vibration    10          0.812              1.354              0.786
 Vibration    11          0.885              1.184              0.587
 Vibration    12          0.956              1.036              0.453

 Optimization completed.
    -- Stationary point found.
 Normal termination of Gaussian 09 at Mon Jan 27 16:59:05 2020.
