 Gaussian 09, Revision D.01,
 Gaussian 09:  ES64L-G09RevD.01 24-Apr-2013

 -----------------------------
 # b3lyp 6-31G(2df,p) opt Freq
 -----------------------------

 -----
 titel
 -----
 Symbolic Z-matrix:
 Charge =  0 Multiplicity = 1

 SCF Done:  E(RB3LYP) =  -423.203216152     A.U. after   14 cycles
 Optimization completed.
    -- Stationary point found.
 Normal termination of Gaussian 09 at Mon Jan 27 22:01:06 2020.

 ----------------------------------------------------------------------
 #N Geom=AllCheck Guess=TCheck SCRF=Check GenChk RB3LYP/6-31G(2df,p) Fr
 eq
 ----------------------------------------------------------------------

 Structure from the checkpoint file:  "/scratch/puck/g09_b7b8b50f-2ca2-4d1e-8d26-b1b782604f81/Gau-98601.chk"
 -----
 titel
 -----
 Charge =  0 Multiplicity = 1

                         Standard orientation:
 ---------------------------------------------------------------------
 Center     Atomic      Atomic             Coordinates (Angstroms)
 Number     Number       Type             X           Y           Z
 ---------------------------------------------------------------------
      1          6           0       -0.570925    2.198538    0.636623
      2          6           0       -0.791111    0.707107    0.757758
      3          6           0       -0.836227   -0.252633   -0.381682
      4          6           0       -1.921663   -1.178233   -0.815249
      5          8           0        0.084542    0.214491   -1.421560
      6          6           0        1.159859    0.014444   -0.564713
      7          8           0        2.315960    0.095683   -0.830249
      8          6           0        0.307752   -0.374333    0.614615
      9          6           0        0.674658   -1.369531    1.675880
     10          1           0       -0.079968    2.594058    1.531223
     11          1           0        0.045157    2.441796   -0.231437
     12          1           0       -1.529064    2.716800    0.523354
     13          1           0       -1.474015    0.420972    1.558490
     14          1           0       -2.639621   -0.659509   -1.459477
     15          1           0       -1.512127   -2.025359   -1.373397
     16          1           0       -2.463132   -1.559295    0.055396
     17          1           0       -0.207353   -1.675073    2.247382
     18          1           0        1.127298   -2.266908    1.242703
     19          1           0        1.394757   -0.941037    2.380837
 ---------------------------------------------------------------------

 SCF Done:  E(RB3LYP) =  -423.203216152     A.U. after    1 cycles

 The electronic state is 1-A.
 Alpha  occ. eigenvalues --  -19.16988 -19.13074 -10.30309 -10.26172 -10.21745
 Alpha  occ. eigenvalues --  -10.21509 -10.20106 -10.19660 -10.18676  -1.10199
 Alpha  occ. eigenvalues --   -1.03006  -0.86670  -0.75793  -0.74800  -0.70352
 Alpha  occ. eigenvalues --   -0.63169  -0.57858  -0.50401  -0.50307  -0.48662
 Alpha  occ. eigenvalues --   -0.46206  -0.43731  -0.42433  -0.41989  -0.41534
 Alpha  occ. eigenvalues --   -0.41148  -0.40587  -0.39930  -0.37560  -0.36178
 Alpha  occ. eigenvalues --   -0.33129  -0.28817  -0.26959  -0.26170
 Alpha virt. eigenvalues --    0.00808   0.07543   0.09675   0.10660   0.11625
 Alpha virt. eigenvalues --    0.12784   0.13356   0.14726   0.14942   0.16376
 Alpha virt. eigenvalues --    0.16706   0.17620   0.18921   0.19576   0.20656

 Mulliken charges:
               1
     1  C   -0.429115
     2  C   -0.110208
     3  C    0.407140
     4  C   -0.489524
     5  O   -0.301735
     6  C    0.426995
     7  O   -0.332820
     8  C    0.018252
     9  C   -0.497287
    10  H    0.125963
    11  H    0.148666
    12  H    0.123565
    13  H    0.096985
    14  H    0.142116
    15  H    0.139885
    16  H    0.130374
    17  H    0.122967
    18  H    0.136300
    19  H    0.141483
 Sum of Mulliken charges =   0.00000

 Dipole moment (field-independent basis, Debye):
    X=             -3.4626    Y=             -0.8843    Z=              2.5006  Tot=              4.3617
 Quadrupole moment (field-independent basis, Debye-Ang):
   XX=            -57.8349   YY=            -50.3300   ZZ=            -54.5870
   XY=             -0.0670   XZ=              3.0667   YZ=              0.8442

  Exact polarizability:  83.628  -1.109  73.873   0.381   0.736  71.445
 Approx polarizability: 130.470  -2.333  99.200  -2.173   0.318 107.432

                      1                      2                      3
                      A                      A                      A
 Frequencies --    124.5830               149.6086               162.5749
 Red. masses --      4.2771                 1.1190                 2.5393
 Frc consts  --      0.0391                 0.0148                 0.0395
 IR Inten    --      1.6315                 0.2491                 0.1746

                      4                      5                      6
                      A                      A                      A
 Frequencies --    187.8964               197.5540               204.8468
 Red. masses --      1.0890                 1.4842                 1.3291
 Frc consts  --      0.0227                 0.0341                 0.0329
 IR Inten    --      0.1247                 0.3521                 0.4185

                      7                      8                      9
                      A                      A                      A
 Frequencies --    241.9130               252.8632               340.3123
 Red. masses --      3.0043                 3.2726                 3.6469
 Frc consts  --      0.1036                 0.1233                 0.2488
 IR Inten    --      0.9171                 1.1309                 1.5226

                     10                     11                     12
                      A                      A                      A
 Frequencies --    441.6806               515.6093               581.1229
 Red. masses --      3.4853                 3.8419                 3.8321
 Frc consts  --      0.4006                 0.6018                 0.7625
 IR Inten    --      0.3897                 2.5129                 1.9075

                     13                     14                     15
                      A                      A                      A
 Frequencies --    620.6179               682.3857               721.6557
 Red. masses --      4.2437                 4.5800                 4.7084
 Frc consts  --      0.9630                 1.2565                 1.4447
 IR Inten    --      1.2475                 2.4913                 1.0694

                     16                     17                     18
                      A                      A                      A
 Frequencies --    752.1742               812.9394               879.0268
 Red. masses --      4.0387                 5.7372                 2.4708
 Frc consts  --      1.3463                 2.2339                 1.1248
 IR Inten    --      3.9377                20.5430                19.3374

                     19                     20                     21
                      A                      A                      A
 Frequencies --    889.4895               987.9113              1016.2673
 Red. masses --      2.6576                 1.1825                 2.0989
 Frc consts  --      1.2389                 0.6799                 1.2772
 IR Inten    --     46.0653                10.5916                44.5762

                     22                     23                     24
                      A                      A                      A
 Frequencies --   1051.8059              1086.3425              1109.7840
 Red. masses --      1.5706                 1.6008                 2.2216
 Frc consts  --      1.0237                 1.1131                 1.6121
 IR Inten    --     13.7067                 2.3531                18.9542

                     25                     26                     27
                      A                      A                      A
 Frequencies --   1124.4246              1142.0469              1178.5848
 Red. masses --      1.7531                 2.5738                 2.6297
 Frc consts  --      1.3059                 1.9779                 2.1522
 IR Inten    --     14.4519                20.0821                 5.7886

                     28                     29                     30
                      A                      A                      A
 Frequencies --   1218.3861              1322.4956              1341.3848
 Red. masses --      3.4763                 1.4970                 3.4891
 Frc consts  --      3.0405                 1.5426                 3.6989
 IR Inten    --     42.5432                 7.0107                 3.1252

                     31                     32                     33
                      A                      A                      A
 Frequencies --   1415.0357              1415.1423              1419.4735
 Red. masses --      1.3400                 1.2456                 1.2200
 Frc consts  --      1.5808                 1.4697                 1.4483
 IR Inten    --      1.1302                 3.9975                 1.8200

                     34                     35                     36
                      A                      A                      A
 Frequencies --   1474.4898              1481.0476              1488.8989
 Red. masses --      1.0600                 1.1987                 1.1415
 Frc consts  --      1.3578                 1.5491                 1.4910
 IR Inten    --      3.2378                 2.4057                 6.8621

                     37                     38                     39
                      A                      A                      A
 Frequencies --   1493.5473              1496.4299              1498.7730
 Red. masses --      1.0919                 1.0820                 1.0442
 Frc consts  --      1.4351                 1.4275                 1.3820
 IR Inten    --      0.3696                 0.8215                13.3579

                     40                     41                     42
                      A                      A                      A
 Frequencies --   1520.8557              1931.9777              3035.0633
 Red. masses --      2.0861                12.8870                 1.0350
 Frc consts  --      2.8430                28.3404                 5.6174
 IR Inten    --     11.7927               441.7582                26.8900

                     43                     44                     45
                      A                      A                      A
 Frequencies --   3038.3096              3040.7919              3099.7269
 Red. masses --      1.0353                 1.0373                 1.1011
 Frc consts  --      5.6312                 5.6508                 6.2331
 IR Inten    --     21.0122                23.0836                 8.1290

                     46                     47                     48
                      A                      A                      A
 Frequencies --   3100.4111              3104.3168              3106.2474
 Red. masses --      1.1005                 1.1002                 1.0984
 Frc consts  --      6.2325                 6.2470                 6.2442
 IR Inten    --     19.5802                 9.9919                 9.7780

                     49                     50                     51
                      A                      A                      A
 Frequencies --   3109.6949              3119.9839              3135.5941
 Red. masses --      1.0904                 1.1012                 1.0987
 Frc consts  --      6.2127                 6.3156                 6.3646
 IR Inten    --     14.2121                13.8350                15.0194

 - Thermochemistry -
 -------------------
 Temperature   298.150 Kelvin.  Pressure   1.00000 Atm.
 Atom     1 has atomic number  6 and mass  12.00000

 Molecular mass:   126.06808 amu.
 Principal axes and moments of inertia in atomic units:
                           1         2         3
     Eigenvalues --   965.396701156.113591210.81937
           X            0.99563   0.00340   0.09338
           Y           -0.00522   0.99980   0.01929
           Z           -0.09329  -0.01969   0.99544
 This molecule is an asymmetric top.
 Rotational symmetry number  1.
 Warning -- assumption of classical behavior for rotation
           may cause significant error
 Rotational temperatures (Kelvin)      0.08972     0.07492     0.07153
 Rotational constants (GHZ):           1.86943     1.56104     1.49051
 Zero-point vibrational energy     411898.8 (Joules/Mol)
                                   98.44617 (Kcal/Mol)
 Warning -- explicit consideration of  13 degrees of freedom as
           vibrations may cause significant error
 Vibrational temperatures:    179.25   215.25   233.91   270.34   284.24
          (Kelvin)            294.73   348.06   363.81   489.63   635.48
                              741.85   836.11   892.93   981.80  1038.30
                             1082.21  1169.64  1264.72  1279.78  1421.38
                             1462.18  1513.31  1563.00  1596.73  1617.79
                             1643.15  1695.72  1752.98  1902.77  1929.95
                             2035.92  2036.07  2042.30  2121.46  2130.89
                             2142.19  2148.88  2153.03  2156.40  2188.17
                             2779.68  4366.77  4371.44  4375.02  4459.81
                             4460.79  4466.41  4469.19  4474.15  4488.96
                             4511.41

 Zero-point correction=                           0.156884 (Hartree/Particle)
 Thermal correction to Energy=                    0.166339
 Thermal correction to Enthalpy=                  0.167284
 Thermal correction to Gibbs Free Energy=         0.123102
 Sum of electronic and zero-point Energies=           -423.046332
 Sum of electronic and thermal Energies=              -423.036877
 Sum of electronic and thermal Enthalpies=            -423.035933
 Sum of electronic and thermal Free Energies=         -423.080114

                     E (Thermal)             CV                S
                      KCal/Mol        Cal/Mol-Kelvin    Cal/Mol-Kelvin
 Total                  104.380             34.733             92.988
 Electronic               0.000              0.000              0.000
 Translational            0.889              2.981             40.409
 Rotational               0.889              2.981             28.693
 Vibrational            102.602             28.771             23.887
 Vibration     1          0.610              1.928              3.028
 Vibration     2          0.618              1.903              2.677
 Vibration     3          0.623              1.888              2.520
 Vibration     4          0.633              1.856              2.248
 Vibration     5          0.637              1.843              2.156
 Vibration     6          0.640              1.833              2.089
 Vibration     7          0.658              1.776              1.789
 Vibration     8          0.664              1.758              1.711
 Vibration     9          0.720              1.595              1.211
 Vibration    10          0.801              1.379              0.821
 Vibration    11          0.871              1.215              0.620
 Vibration    12          0.938              1.072              0.483
 Vibration    13          0.981              0.988              0.416

 Normal termination of Gaussian 09 at Mon Jan 27 22:46:18 2020.
