 Gaussian 09, Revision D.01,
 Gaussian 09:  ES64L-G09RevD.01 24-Apr-2013

 -----------------------------
 # b3lyp 6-31G(2df,p) opt Freq
 -----------------------------

 -----
 titel
 -----
 Symbolic Z-matrix:
 Charge =  0 Multiplicity = 1

 SCF Done:  E(RB3LYP) =  -423.161683062     A.U. after   13 cycles
 Optimization completed.
    -- Stationary point found.
 Normal termination of Gaussian 09 at Tue Jan 28 02:53:11 2020.

 ----------------------------------------------------------------------
 #N Geom=AllCheck Guess=TCheck SCRF=Check GenChk RB3LYP/6-31G(2df,p) Fr
 eq
 ----------------------------------------------------------------------

 Structure from the checkpoint file:  "/scratch/puck/g09_59ba9ab0-bc66-4a0b-8029-e24e3c2e12c4/Gau-193557.chk"
 -----
 titel
 -----
 Charge =  0 Multiplicity = 1

                         Standard orientation:
 ---------------------------------------------------------------------
 Center     Atomic      Atomic             Coordinates (Angstroms)
 Number     Number       Type             X           Y           Z
 ---------------------------------------------------------------------
      1          8           0        2.663756    0.014910    0.444583
      2          6           0        1.565086    0.222645   -0.431926
      3          6           0        0.843224   -1.105104   -0.800616
      4          6           0       -0.380214   -1.121898    0.113907
      5          6           0       -0.349904    0.041138    1.092214
      6          6           0        0.462304    1.055702    0.234858
      7          6           0       -0.785643    1.218204   -0.698784
      8          6           0       -1.395076    0.004779    0.002510
      9          8           0       -2.750463   -0.213255    0.171626
     10          1           0        2.316671   -0.388873    1.248780
     11          1           0        1.989290    0.722081   -1.308053
     12          1           0        0.571365   -1.141138   -1.861301
     13          1           0        1.514781   -1.947072   -0.609165
     14          1           0       -0.797127   -2.060157    0.463283
     15          1           0       -0.450572   -0.024127    2.167055
     16          1           0        0.830951    1.963988    0.709291
     17          1           0       -1.346221    2.123539   -0.454305
     18          1           0       -0.622604    1.175988   -1.782799
     19          1           0       -3.071542   -0.730270   -0.575436
 ---------------------------------------------------------------------

 SCF Done:  E(RB3LYP) =  -423.161683063     A.U. after    1 cycles

 The electronic state is 1-A.
 Alpha  occ. eigenvalues --  -19.14839 -19.12980 -10.23966 -10.22636 -10.19089
 Alpha  occ. eigenvalues --  -10.18924 -10.18678 -10.18320 -10.17923  -1.03486
 Alpha  occ. eigenvalues --   -1.01342  -0.90351  -0.74381  -0.73715  -0.65932
 Alpha  occ. eigenvalues --   -0.60282  -0.56727  -0.53971  -0.53305  -0.48952
 Alpha  occ. eigenvalues --   -0.47023  -0.43928  -0.42258  -0.41542  -0.39208
 Alpha  occ. eigenvalues --   -0.37761  -0.36981  -0.35216  -0.33554  -0.31816
 Alpha  occ. eigenvalues --   -0.30164  -0.26560  -0.25297  -0.24707
 Alpha virt. eigenvalues --    0.07539   0.08397   0.09512   0.10705   0.13105
 Alpha virt. eigenvalues --    0.14223   0.14843   0.15478   0.16332   0.17439
 Alpha virt. eigenvalues --    0.18136   0.18992   0.19508   0.21504   0.22395

 Mulliken charges:
               1
     1  O   -0.441680
     2  C    0.152419
     3  C   -0.277192
     4  C   -0.119239
     5  C   -0.167749
     6  C   -0.066048
     7  C   -0.320333
     8  C    0.406908
     9  O   -0.468391
    10  H    0.279727
    11  H    0.083248
    12  H    0.097186
    13  H    0.105057
    14  H    0.086225
    15  H    0.092785
    16  H    0.076978
    17  H    0.110924
    18  H    0.085340
    19  H    0.283837
 Sum of Mulliken charges =   0.00000

 Dipole moment (field-independent basis, Debye):
    X=             -1.0524    Y=             -0.9113    Z=             -0.6630  Tot=              1.5419
 Quadrupole moment (field-independent basis, Debye-Ang):
   XX=            -61.3156   YY=            -50.8611   ZZ=            -49.6109
   XY=              1.3897   XZ=              4.1962   YZ=             -0.1582

  Exact polarizability:  80.398   0.014  71.475   1.178  -0.292  69.249
 Approx polarizability: 112.844   0.668 105.376   3.460   0.351 109.011

                      1                      2                      3
                      A                      A                      A
 Frequencies --    119.9211               208.1660               276.4116
 Red. masses --      4.3021                 2.1247                 1.3995
 Frc consts  --      0.0365                 0.0542                 0.0630
 IR Inten    --      3.7145                27.4997                27.3819

                      4                      5                      6
                      A                      A                      A
 Frequencies --    290.4506               324.2962               353.3257
 Red. masses --      2.1801                 1.3334                 3.4040
 Frc consts  --      0.1084                 0.0826                 0.2504
 IR Inten    --     29.2066                55.7021                40.1646

                      7                      8                      9
                      A                      A                      A
 Frequencies --    421.5884               430.5918               469.3117
 Red. masses --      3.7071                 3.2284                 1.8733
 Frc consts  --      0.3882                 0.3527                 0.2431
 IR Inten    --      3.2365                 5.3032                 4.8535

                     10                     11                     12
                      A                      A                      A
 Frequencies --    619.7760               681.6448               737.7743
 Red. masses --      3.8075                 3.7025                 4.0609
 Frc consts  --      0.8617                 1.0136                 1.3023
 IR Inten    --      2.1130                 2.6804                 1.7691

                     13                     14                     15
                      A                      A                      A
 Frequencies --    742.5737               825.9033               851.3189
 Red. masses --      2.7888                 2.6590                 2.9435
 Frc consts  --      0.9060                 1.0686                 1.2569
 IR Inten    --      9.5907                 9.2496                11.1210

                     16                     17                     18
                      A                      A                      A
 Frequencies --    863.7371               914.4151               927.6386
 Red. masses --      2.0145                 1.7279                 1.9802
 Frc consts  --      0.8855                 0.8513                 1.0039
 IR Inten    --     11.1402                 2.7357                 2.4132

                     19                     20                     21
                      A                      A                      A
 Frequencies --    950.1495               969.9866               984.3182
 Red. masses --      1.8367                 2.0042                 2.3271
 Frc consts  --      0.9770                 1.1110                 1.3284
 IR Inten    --      2.9519                18.2072                 2.8295

                     22                     23                     24
                      A                      A                      A
 Frequencies --   1010.8499              1025.0652              1071.4818
 Red. masses --      1.7772                 1.7688                 1.6008
 Frc consts  --      1.0699                 1.0951                 1.0828
 IR Inten    --     16.9174                 4.9755                15.0758

                     25                     26                     27
                      A                      A                      A
 Frequencies --   1084.5101              1114.8915              1174.5055
 Red. masses --      2.8091                 1.2980                 1.7205
 Frc consts  --      1.9466                 0.9506                 1.3983
 IR Inten    --     53.8634                20.1982                19.1106

                     28                     29                     30
                      A                      A                      A
 Frequencies --   1181.6204              1191.5056              1222.4234
 Red. masses --      1.3778                 1.4884                 1.9381
 Frc consts  --      1.1334                 1.2449                 1.7064
 IR Inten    --     32.8293                16.2248                34.3058

                     31                     32                     33
                      A                      A                      A
 Frequencies --   1237.9734              1260.9074              1284.9049
 Red. masses --      1.6432                 1.5207                 1.6225
 Frc consts  --      1.4838                 1.4245                 1.5782
 IR Inten    --      2.9731                 8.4456                40.3992

                     34                     35                     36
                      A                      A                      A
 Frequencies --   1291.2371              1310.0411              1323.8259
 Red. masses --      1.7281                 1.7196                 1.7384
 Frc consts  --      1.6975                 1.7388                 1.7950
 IR Inten    --     50.7352                16.5518                 5.3496

                     37                     38                     39
                      A                      A                      A
 Frequencies --   1328.7489              1426.4672              1443.5413
 Red. masses --      1.4979                 1.2729                 2.3678
 Frc consts  --      1.5582                 1.5261                 2.9071
 IR Inten    --     16.5203                45.8037                56.4127

                     40                     41                     42
                      A                      A                      A
 Frequencies --   1484.9324              1504.6685              3026.3546
 Red. masses --      1.1307                 1.2036                 1.0644
 Frc consts  --      1.4690                 1.6055                 5.7440
 IR Inten    --      8.0405                 4.0914                39.2119

                     43                     44                     45
                      A                      A                      A
 Frequencies --   3041.5130              3072.8055              3089.8762
 Red. masses --      1.0639                 1.0853                 1.1013
 Frc consts  --      5.7987                 6.0377                 6.1948
 IR Inten    --     31.4679                37.9085                24.0215

                     46                     47                     48
                      A                      A                      A
 Frequencies --   3103.7251              3126.3205              3177.0326
 Red. masses --      1.0999                 1.0895                 1.0893
 Frc consts  --      6.2425                 6.2737                 6.4780
 IR Inten    --     17.1547                27.8261                10.4827

                     49                     50                     51
                      A                      A                      A
 Frequencies --   3207.0566              3787.8449              3793.6913
 Red. masses --      1.0954                 1.0656                 1.0661
 Frc consts  --      6.6380                 9.0078                 9.0402
 IR Inten    --      8.6318                 9.9825                20.9276

 - Thermochemistry -
 -------------------
 Temperature   298.150 Kelvin.  Pressure   1.00000 Atm.
 Atom     1 has atomic number  8 and mass  15.99491

 Molecular mass:   126.06808 amu.
 Principal axes and moments of inertia in atomic units:
                           1         2         3
     Eigenvalues --   477.158191375.353761489.12628
           X            0.99998  -0.00440   0.00364
           Y            0.00444   0.99992  -0.01165
           Z           -0.00359   0.01167   0.99993
 This molecule is an asymmetric top.
 Rotational symmetry number  1.
 Warning -- assumption of classical behavior for rotation
           may cause significant error
 Rotational temperatures (Kelvin)      0.18152     0.06298     0.05816
 Rotational constants (GHZ):           3.78227     1.31220     1.21195
 Zero-point vibrational energy     420867.9 (Joules/Mol)
                                  100.58985 (Kcal/Mol)
 Warning -- explicit consideration of  10 degrees of freedom as
           vibrations may cause significant error
 Vibrational temperatures:    172.54   299.50   397.69   417.89   466.59
          (Kelvin)            508.36   606.57   619.52   675.23   891.72
                              980.73  1061.49  1068.40  1188.29  1224.86
                             1242.72  1315.64  1334.66  1367.05  1395.59
                             1416.21  1454.39  1474.84  1541.62  1560.37
                             1604.08  1689.85  1700.09  1714.31  1758.79
                             1781.17  1814.16  1848.69  1857.80  1884.85
                             1904.69  1911.77  2052.37  2076.93  2136.48
                             2164.88  4354.24  4376.05  4421.08  4445.64
                             4465.56  4498.07  4571.04  4614.23  5449.86
                             5458.27

 Zero-point correction=                           0.160300 (Hartree/Particle)
 Thermal correction to Energy=                    0.168035
 Thermal correction to Enthalpy=                  0.168979
 Thermal correction to Gibbs Free Energy=         0.128569
 Sum of electronic and zero-point Energies=           -423.001383
 Sum of electronic and thermal Energies=              -422.993648
 Sum of electronic and thermal Enthalpies=            -422.992704
 Sum of electronic and thermal Free Energies=         -423.033114

                     E (Thermal)             CV                S
                      KCal/Mol        Cal/Mol-Kelvin    Cal/Mol-Kelvin
 Total                  105.443             31.587             85.049
 Electronic               0.000              0.000              0.000
 Translational            0.889              2.981             40.409
 Rotational               0.889              2.981             28.371
 Vibrational            103.666             25.625             16.270
 Vibration     1          0.609              1.933              3.102
 Vibration     2          0.641              1.828              2.060
 Vibration     3          0.678              1.717              1.556
 Vibration     4          0.686              1.692              1.471
 Vibration     5          0.709              1.627              1.288
 Vibration     6          0.730              1.568              1.151
 Vibration     7          0.784              1.423              0.887
 Vibration     8          0.792              1.404              0.857
 Vibration     9          0.826              1.318              0.739
 Vibration    10          0.980              0.990              0.417

 Optimization completed.
    -- Stationary point found.
 Normal termination of Gaussian 09 at Tue Jan 28 03:42:29 2020.
