 Gaussian 09, Revision D.01,
 Gaussian 09:  ES64L-G09RevD.01 24-Apr-2013

 -----------------------------
 # b3lyp 6-31G(2df,p) opt Freq
 -----------------------------

 -----
 titel
 -----
 Symbolic Z-matrix:
 Charge =  0 Multiplicity = 1

 SCF Done:  E(RB3LYP) =  -423.215716991     A.U. after   14 cycles
 Optimization completed.
    -- Stationary point found.
 Normal termination of Gaussian 09 at Tue Jan 28 03:55:32 2020.

 ----------------------------------------------------------------------
 #N Geom=AllCheck Guess=TCheck SCRF=Check GenChk RB3LYP/6-31G(2df,p) Fr
 eq
 ----------------------------------------------------------------------

 Structure from the checkpoint file:  "/scratch/puck/g09_d9148dd9-b756-4d49-b464-84b943e32608/Gau-62810.chk"
 -----
 titel
 -----
 Charge =  0 Multiplicity = 1

                         Standard orientation:
 ---------------------------------------------------------------------
 Center     Atomic      Atomic             Coordinates (Angstroms)
 Number     Number       Type             X           Y           Z
 ---------------------------------------------------------------------
      1          6           0       -2.567255    0.217123    0.151613
      2          6           0       -1.071948    0.240855    0.482374
      3          6           0       -0.421171    1.578563    0.191090
      4          6           0        0.792765    1.726490   -0.334711
      5          6           0        1.689542    0.578726   -0.717004
      6          6           0        1.218357   -0.755125   -0.128052
      7          8           0        1.601444   -0.767523    1.247532
      8          6           0       -0.306715   -0.864090   -0.239950
      9          8           0       -0.841667   -1.756908   -0.855168
     10          1           0       -2.734177    0.405250   -0.912863
     11          1           0       -3.001257   -0.756822    0.387367
     12          1           0       -3.096842    0.984705    0.724095
     13          1           0       -0.941913    0.041186    1.558325
     14          1           0       -1.014791    2.454774    0.441969
     15          1           0        1.179735    2.726021   -0.515942
     16          1           0        1.744273    0.491707   -1.810804
     17          1           0        2.715436    0.754233   -0.370862
     18          1           0        1.662312   -1.598180   -0.672153
     19          1           0        1.407549   -1.642676    1.599809
 ---------------------------------------------------------------------

 SCF Done:  E(RB3LYP) =  -423.215716991     A.U. after    1 cycles

 The electronic state is 1-A.
 Alpha  occ. eigenvalues --  -19.15209 -19.13433 -10.26420 -10.24098 -10.19796
 Alpha  occ. eigenvalues --  -10.19551 -10.18751 -10.18661 -10.17517  -1.04742
 Alpha  occ. eigenvalues --   -1.02779  -0.83207  -0.77355  -0.72405  -0.67570
 Alpha  occ. eigenvalues --   -0.61187  -0.57351  -0.53786  -0.50243  -0.47606
 Alpha  occ. eigenvalues --   -0.46407  -0.44118  -0.42684  -0.41493  -0.40679
 Alpha  occ. eigenvalues --   -0.38110  -0.37312  -0.36884  -0.35959  -0.34895
 Alpha  occ. eigenvalues --   -0.32172  -0.30161  -0.25216  -0.23340
 Alpha virt. eigenvalues --   -0.01976   0.01795   0.07027   0.10884   0.11518
 Alpha virt. eigenvalues --    0.13669   0.14939   0.16010   0.16653   0.17088
 Alpha virt. eigenvalues --    0.17707   0.18369   0.19664   0.20636   0.22742

 Mulliken charges:
               1
     1  C   -0.401166
     2  C   -0.121396
     3  C   -0.040304
     4  C   -0.066893
     5  C   -0.270905
     6  C    0.013282
     7  O   -0.428919
     8  C    0.353783
     9  O   -0.321227
    10  H    0.127437
    11  H    0.129141
    12  H    0.109166
    13  H    0.114308
    14  H    0.090699
    15  H    0.091686
    16  H    0.122610
    17  H    0.122787
    18  H    0.083924
    19  H    0.291985
 Sum of Mulliken charges =   0.00000

 Dipole moment (field-independent basis, Debye):
    X=              0.7488    Y=              0.7802    Z=              0.7947  Tot=              1.3420
 Quadrupole moment (field-independent basis, Debye-Ang):
   XX=            -53.1221   YY=            -52.7696   ZZ=            -53.5217
   XY=             -3.5867   XZ=             -4.0749   YZ=             -4.9451

  Exact polarizability:  89.787   2.170  78.053  -6.989   1.110  63.121
 Approx polarizability: 126.682   7.931 113.866  -9.507   5.536 102.645

                      1                      2                      3
                      A                      A                      A
 Frequencies --     69.5541               107.1274               185.4714
 Red. masses --      4.2496                 3.2912                 1.4922
 Frc consts  --      0.0121                 0.0223                 0.0302
 IR Inten    --      2.2615                 2.7104                 0.5133

                      4                      5                      6
                      A                      A                      A
 Frequencies --    205.4286               280.1704               292.2864
 Red. masses --      2.1036                 2.5860                 3.5823
 Frc consts  --      0.0523                 0.1196                 0.1803
 IR Inten    --      0.7856                 0.2642                 4.6888

                      7                      8                      9
                      A                      A                      A
 Frequencies --    328.3204               357.5435               430.6016
 Red. masses --      1.7371                 1.4735                 4.2919
 Frc consts  --      0.1103                 0.1110                 0.4689
 IR Inten    --     35.6595                80.6053                 1.6522

                     10                     11                     12
                      A                      A                      A
 Frequencies --    479.2082               531.3780               576.8143
 Red. masses --      2.8038                 4.0742                 6.4694
 Frc consts  --      0.3794                 0.6778                 1.2682
 IR Inten    --      1.8543                 3.2317                13.0909

                     13                     14                     15
                      A                      A                      A
 Frequencies --    682.8722               689.5607               753.7083
 Red. masses --      2.2876                 2.3911                 2.5292
 Frc consts  --      0.6285                 0.6699                 0.8465
 IR Inten    --     11.5972                17.9208                 0.8562

                     16                     17                     18
                      A                      A                      A
 Frequencies --    851.1791               868.9328               925.7749
 Red. masses --      2.3503                 2.6614                 2.1849
 Frc consts  --      1.0033                 1.1840                 1.1033
 IR Inten    --      4.0848                 3.8287                37.3618

                     19                     20                     21
                      A                      A                      A
 Frequencies --    936.4274               996.9318              1017.1231
 Red. masses --      2.5824                 1.2032                 1.7583
 Frc consts  --      1.3342                 0.7046                 1.0717
 IR Inten    --      2.8455                 0.6131                 4.9858

                     22                     23                     24
                      A                      A                      A
 Frequencies --   1028.5712              1077.1515              1109.6535
 Red. masses --      1.7681                 3.1197                 3.7201
 Frc consts  --      1.1021                 2.1326                 2.6989
 IR Inten    --      0.5917                23.8712                13.7925

                     25                     26                     27
                      A                      A                      A
 Frequencies --   1117.5440              1154.9644              1203.1334
 Red. masses --      1.4395                 1.6580                 1.3826
 Frc consts  --      1.0592                 1.3031                 1.1792
 IR Inten    --      2.0801                24.1171                 3.5513

                     28                     29                     30
                      A                      A                      A
 Frequencies --   1217.1918              1248.4350              1284.7289
 Red. masses --      1.1350                 1.1817                 1.4931
 Frc consts  --      0.9908                 1.0851                 1.4520
 IR Inten    --      8.0841                22.9936                 2.5552

                     31                     32                     33
                      A                      A                      A
 Frequencies --   1324.9902              1333.4081              1376.6458
 Red. masses --      1.8920                 1.5025                 1.6574
 Frc consts  --      1.9571                 1.5740                 1.8506
 IR Inten    --      9.2751                32.2039                 5.5135

                     34                     35                     36
                      A                      A                      A
 Frequencies --   1394.9797              1407.4461              1422.4074
 Red. masses --      1.4287                 1.2644                 1.3929
 Frc consts  --      1.6381                 1.4756                 1.6604
 IR Inten    --      8.1760                 1.5885                 5.8577

                     37                     38                     39
                      A                      A                      A
 Frequencies --   1460.4930              1489.9066              1495.1557
 Red. masses --      1.0949                 1.0448                 1.0526
 Frc consts  --      1.3760                 1.3665                 1.3865
 IR Inten    --      4.3201                 5.5986                 4.5520

                     40                     41                     42
                      A                      A                      A
 Frequencies --   1725.0148              1815.9107              2981.0646
 Red. masses --      6.9976                11.9435                 1.0790
 Frc consts  --     12.2683                23.2044                 5.6498
 IR Inten    --      2.2550               151.6953                 8.9526

                     43                     44                     45
                      A                      A                      A
 Frequencies --   3014.9354              3032.8510              3045.7471
 Red. masses --      1.0659                 1.0823                 1.0357
 Frc consts  --      5.7087                 5.8655                 5.6606
 IR Inten    --     10.6581                54.7569                22.5238

                     46                     47                     48
                      A                      A                      A
 Frequencies --   3055.4713              3114.7025              3131.1337
 Red. masses --      1.0982                 1.1019                 1.1010
 Frc consts  --      6.0407                 6.2986                 6.3599
 IR Inten    --     12.1719                19.9163                15.6899

                     49                     50                     51
                      A                      A                      A
 Frequencies --   3143.7512              3168.0642              3812.6254
 Red. masses --      1.0836                 1.0966                 1.0665
 Frc consts  --      6.3096                 6.4845                 9.1341
 IR Inten    --      5.5677                29.3930                28.4571

 - Thermochemistry -
 -------------------
 Temperature   298.150 Kelvin.  Pressure   1.00000 Atm.
 Atom     1 has atomic number  6 and mass  12.00000

 Molecular mass:   126.06808 amu.
 Principal axes and moments of inertia in atomic units:
                           1         2         3
     Eigenvalues --   806.668151115.681761500.08617
           X            0.99867  -0.04005  -0.03259
           Y            0.03922   0.99890  -0.02584
           Z            0.03359   0.02452   0.99913
 This molecule is an asymmetric top.
 Rotational symmetry number  1.
 Warning -- assumption of classical behavior for rotation
           may cause significant error
 Rotational temperatures (Kelvin)      0.10737     0.07763     0.05774
 Rotational constants (GHZ):           2.23728     1.61761     1.20309
 Zero-point vibrational energy     417224.5 (Joules/Mol)
                                   99.71905 (Kcal/Mol)
 Warning -- explicit consideration of  12 degrees of freedom as
           vibrations may cause significant error
 Vibrational temperatures:    100.07   154.13   266.85   295.57   403.10
          (Kelvin)            420.53   472.38   514.42   619.54   689.47
                              764.53   829.91   982.50   992.12  1084.42
                             1224.66  1250.20  1331.98  1347.31  1434.36
                             1463.41  1479.88  1549.78  1596.54  1607.89
                             1661.73  1731.04  1751.27  1796.22  1848.44
                             1906.36  1918.47  1980.68  2007.06  2025.00
                             2046.52  2101.32  2143.64  2151.19  2481.91
                             2612.69  4289.08  4337.81  4363.59  4382.15
                             4396.14  4481.36  4505.00  4523.15  4558.13
                             5485.51

 Zero-point correction=                           0.158912 (Hartree/Particle)
 Thermal correction to Energy=                    0.167784
 Thermal correction to Enthalpy=                  0.168728
 Thermal correction to Gibbs Free Energy=         0.125368
 Sum of electronic and zero-point Energies=           -423.056805
 Sum of electronic and thermal Energies=              -423.047933
 Sum of electronic and thermal Enthalpies=            -423.046989
 Sum of electronic and thermal Free Energies=         -423.090349

                     E (Thermal)             CV                S
                      KCal/Mol        Cal/Mol-Kelvin    Cal/Mol-Kelvin
 Total                  105.286             33.456             91.260
 Electronic               0.000              0.000              0.000
 Translational            0.889              2.981             40.409
 Rotational               0.889              2.981             28.692
 Vibrational            103.509             27.495             22.160
 Vibration     1          0.598              1.969              4.166
 Vibration     2          0.606              1.944              3.320
 Vibration     3          0.632              1.860              2.273
 Vibration     4          0.640              1.832              2.084
 Vibration     5          0.680              1.710              1.533
 Vibration     6          0.688              1.688              1.461
 Vibration     7          0.712              1.619              1.268
 Vibration     8          0.733              1.560              1.133
 Vibration     9          0.792              1.404              0.857
 Vibration    10          0.836              1.296              0.712
 Vibration    11          0.886              1.181              0.584
 Vibration    12          0.933              1.081              0.491

 Optimization completed.
    -- Stationary point found.
 Normal termination of Gaussian 09 at Tue Jan 28 04:41:34 2020.
