 Gaussian 09, Revision D.01,
 Gaussian 09:  ES64L-G09RevD.01 24-Apr-2013

 -----------------------------
 # b3lyp 6-31G(2df,p) opt Freq
 -----------------------------

 -----
 titel
 -----
 Symbolic Z-matrix:
 Charge =  0 Multiplicity = 1

 SCF Done:  E(RB3LYP) =  -423.158082496     A.U. after   15 cycles
 Optimization completed.
    -- Stationary point found.
 Normal termination of Gaussian 09 at Tue Jan 28 08:09:12 2020.

 ----------------------------------------------------------------------
 #N Geom=AllCheck Guess=TCheck SCRF=Check GenChk RB3LYP/6-31G(2df,p) Fr
 eq
 ----------------------------------------------------------------------

 Structure from the checkpoint file:  "/scratch/puck/g09_aca7fb85-8824-497e-a834-bd5040ab2d27/Gau-11736.chk"
 -----
 titel
 -----
 Charge =  0 Multiplicity = 1

                         Standard orientation:
 ---------------------------------------------------------------------
 Center     Atomic      Atomic             Coordinates (Angstroms)
 Number     Number       Type             X           Y           Z
 ---------------------------------------------------------------------
      1          6           0        3.202478   -0.526342   -0.421951
      2          6           0        1.709446   -0.161655   -0.368571
      3          6           0        0.867841   -1.347100    0.168391
      4          6           0       -0.557598   -1.043515    0.213487
      5          6           0       -1.724599   -0.745201    0.237689
      6          6           0       -3.121520   -0.310591    0.256719
      7          8           0       -3.397065    0.730340   -0.668889
      8          6           0        1.522052    1.047593    0.529890
      9          8           0        1.199624    2.145353    0.160120
     10          1           0        3.789548    0.287468   -0.856181
     11          1           0        3.596920   -0.732503    0.579742
     12          1           0        3.356447   -1.421374   -1.032393
     13          1           0        1.352666    0.116158   -1.364566
     14          1           0        1.054286   -2.223848   -0.463742
     15          1           0        1.224631   -1.614838    1.172912
     16          1           0       -3.780114   -1.140899   -0.021949
     17          1           0       -3.397157   -0.019186    1.283141
     18          1           0       -2.741607    1.422207   -0.528312
     19          1           0        1.735306    0.842135    1.607576
 ---------------------------------------------------------------------

 SCF Done:  E(RB3LYP) =  -423.158082496     A.U. after    1 cycles

 The electronic state is 1-A.
 Alpha  occ. eigenvalues --  -19.14392 -19.13884 -10.27423 -10.25164 -10.22328
 Alpha  occ. eigenvalues --  -10.21116 -10.19847 -10.18438 -10.17918  -1.05102
 Alpha  occ. eigenvalues --   -1.02085  -0.83397  -0.77043  -0.72783  -0.67468
 Alpha  occ. eigenvalues --   -0.65220  -0.57721  -0.53234  -0.49626  -0.47553
 Alpha  occ. eigenvalues --   -0.46846  -0.45718  -0.44413  -0.43890  -0.42065
 Alpha  occ. eigenvalues --   -0.40140  -0.38890  -0.36510  -0.36219  -0.35336
 Alpha  occ. eigenvalues --   -0.28655  -0.26551  -0.25884  -0.25125
 Alpha virt. eigenvalues --   -0.02605   0.02739   0.05157   0.08315   0.10432
 Alpha virt. eigenvalues --    0.11093   0.13076   0.13417   0.14719   0.15168
 Alpha virt. eigenvalues --    0.16468   0.17729   0.19239   0.20860   0.21436

 Mulliken charges:
               1
     1  C   -0.415445
     2  C   -0.050327
     3  C   -0.371550
     4  C    0.000667
     5  C    0.116323
     6  C   -0.188147
     7  O   -0.402321
     8  C    0.175431
     9  O   -0.247669
    10  H    0.135467
    11  H    0.123867
    12  H    0.128762
    13  H    0.108995
    14  H    0.136057
    15  H    0.131048
    16  H    0.139084
    17  H    0.117817
    18  H    0.292662
    19  H    0.069281
 Sum of Mulliken charges =   0.00000

 Dipole moment (field-independent basis, Debye):
    X=              2.1341    Y=             -2.3102    Z=              1.0676  Tot=              3.3213
 Quadrupole moment (field-independent basis, Debye-Ang):
   XX=            -52.4931   YY=            -57.1425   ZZ=            -53.1400
   XY=             -2.5641   XZ=             -3.6970   YZ=              0.5524

  Exact polarizability: 106.525  -7.357  74.036  -1.466  -1.179  62.570
 Approx polarizability: 144.969 -17.125 112.627   1.521  -5.344  94.462

                      1                      2                      3
                      A                      A                      A
 Frequencies --     21.1906                43.8047                58.5195
 Red. masses --      5.0872                 4.1756                 2.7997
 Frc consts  --      0.0013                 0.0047                 0.0056
 IR Inten    --      1.5111                 4.4776                 0.1170

                      4                      5                      6
                      A                      A                      A
 Frequencies --     80.6502               177.3109               201.2987
 Red. masses --      4.1472                 3.5827                 2.5184
 Frc consts  --      0.0159                 0.0664                 0.0601
 IR Inten    --      3.4661                 2.1256                 8.2025

                      7                      8                      9
                      A                      A                      A
 Frequencies --    217.0178               295.3781               307.7013
 Red. masses --      1.0673                 2.6586                 1.8216
 Frc consts  --      0.0296                 0.1367                 0.1016
 IR Inten    --      0.5344                 5.0252                34.1898

                     10                     11                     12
                      A                      A                      A
 Frequencies --    326.3370               347.6276               378.9267
 Red. masses --      1.7622                 2.2206                 3.4922
 Frc consts  --      0.1106                 0.1581                 0.2954
 IR Inten    --     28.3109                56.7735                 5.5793

                     13                     14                     15
                      A                      A                      A
 Frequencies --    438.9567               543.7275               594.0664
 Red. masses --      4.7110                 4.2004                 7.3378
 Frc consts  --      0.5348                 0.7317                 1.5258
 IR Inten    --     11.2578                 6.9667                 4.1151

                     16                     17                     18
                      A                      A                      A
 Frequencies --    781.6728               832.7275               899.5798
 Red. masses --      3.5972                 1.8907                 1.5446
 Frc consts  --      1.2950                 0.7725                 0.7365
 IR Inten    --     10.4041                17.8606                 0.5692

                     19                     20                     21
                      A                      A                      A
 Frequencies --    929.8918               968.5909               991.1887
 Red. masses --      1.6250                 2.4761                 1.5845
 Frc consts  --      0.8279                 1.3687                 0.9172
 IR Inten    --      9.9752                 0.6634                30.3942

                     22                     23                     24
                      A                      A                      A
 Frequencies --   1047.6982              1092.7057              1113.1532
 Red. masses --      6.1484                 2.4871                 1.8524
 Frc consts  --      3.9763                 1.7496                 1.3524
 IR Inten    --     79.2688                 2.6953                 3.5066

                     25                     26                     27
                      A                      A                      A
 Frequencies --   1153.1076              1155.9508              1214.5465
 Red. masses --      2.0716                 2.9691                 1.1634
 Frc consts  --      1.6229                 2.3375                 1.0111
 IR Inten    --      7.4553                 6.3357                12.9705

                     28                     29                     30
                      A                      A                      A
 Frequencies --   1221.8717              1301.9004              1329.5452
 Red. masses --      1.1956                 1.3202                 1.4309
 Frc consts  --      1.0517                 1.3184                 1.4902
 IR Inten    --      8.8631                12.3037                 2.6182

                     31                     32                     33
                      A                      A                      A
 Frequencies --   1353.5851              1360.0773              1405.2103
 Red. masses --      1.3851                 1.2230                 1.2014
 Frc consts  --      1.4952                 1.3329                 1.3977
 IR Inten    --      5.2249                 3.9906                 0.9449

                     34                     35                     36
                      A                      A                      A
 Frequencies --   1420.8471              1426.8874              1472.2375
 Red. masses --      1.2358                 1.2031                 1.0887
 Frc consts  --      1.4699                 1.4432                 1.3904
 IR Inten    --     89.6478                 3.0956                 2.1244

                     37                     38                     39
                      A                      A                      A
 Frequencies --   1493.5200              1496.8262              1499.5232
 Red. masses --      1.0794                 1.0489                 1.0535
 Frc consts  --      1.4185                 1.3847                 1.3957
 IR Inten    --      0.4554                 6.1744                 6.6630

                     40                     41                     42
                      A                      A                      A
 Frequencies --   1840.1995              2363.9452              2835.2674
 Red. masses --     10.4524                11.8450                 1.0811
 Frc consts  --     20.8543                38.9997                 5.1206
 IR Inten    --    147.9735                 3.2983                98.9199

                     43                     44                     45
                      A                      A                      A
 Frequencies --   2974.1356              3011.4264              3033.2283
 Red. masses --      1.0715                 1.0618                 1.0362
 Frc consts  --      5.5844                 5.6733                 5.6170
 IR Inten    --     51.9351                20.5623                21.9090

                     46                     47                     48
                      A                      A                      A
 Frequencies --   3048.8558              3060.6277              3077.5919
 Red. masses --      1.0964                 1.0881                 1.0869
 Frc consts  --      6.0050                 6.0054                 6.0657
 IR Inten    --     10.4488                19.5814                 4.9133

                     49                     50                     51
                      A                      A                      A
 Frequencies --   3103.3624              3118.0564              3810.9698
 Red. masses --      1.0991                 1.1020                 1.0664
 Frc consts  --      6.2365                 6.3127                 9.1248
 IR Inten    --     26.5789                16.0765                20.5416

 - Thermochemistry -
 -------------------
 Temperature   298.150 Kelvin.  Pressure   1.00000 Atm.
 Atom     1 has atomic number  6 and mass  12.00000

 Molecular mass:   126.06808 amu.
 Principal axes and moments of inertia in atomic units:
                           1         2         3
     Eigenvalues --   652.953582378.322142837.12558
           X            0.99980  -0.01795  -0.00902
           Y            0.01798   0.99983   0.00342
           Z            0.00896  -0.00358   0.99995
 This molecule is an asymmetric top.
 Rotational symmetry number  1.
 Warning -- assumption of classical behavior for rotation
           may cause significant error
 Rotational temperatures (Kelvin)      0.13265     0.03642     0.03053
 Rotational constants (GHZ):           2.76397     0.75883     0.63612
 Zero-point vibrational energy     408363.4 (Joules/Mol)
                                   97.60119 (Kcal/Mol)
 Warning -- explicit consideration of  15 degrees of freedom as
           vibrations may cause significant error
 Vibrational temperatures:     30.49    63.03    84.20   116.04   255.11
          (Kelvin)            289.62   312.24   424.98   442.71   469.53
                              500.16   545.19   631.56   782.30   854.73
                             1124.65  1198.11  1294.29  1337.91  1393.58
                             1426.10  1507.40  1572.16  1601.58  1659.06
                             1663.15  1747.46  1758.00  1873.14  1912.92
                             1947.50  1956.85  2021.78  2044.28  2052.97
                             2118.22  2148.84  2153.60  2157.48  2647.63
                             3401.19  4079.31  4279.11  4332.77  4364.13
                             4386.62  4403.56  4427.96  4465.04  4486.18
                             5483.13

 Zero-point correction=                           0.155537 (Hartree/Particle)
 Thermal correction to Energy=                    0.166512
 Thermal correction to Enthalpy=                  0.167456
 Thermal correction to Gibbs Free Energy=         0.116937
 Sum of electronic and zero-point Energies=           -423.002545
 Sum of electronic and thermal Energies=              -422.991571
 Sum of electronic and thermal Enthalpies=            -422.990626
 Sum of electronic and thermal Free Energies=         -423.041145

                     E (Thermal)             CV                S
                      KCal/Mol        Cal/Mol-Kelvin    Cal/Mol-Kelvin
 Total                  104.488             36.974            106.326
 Electronic               0.000              0.000              0.000
 Translational            0.889              2.981             40.409
 Rotational               0.889              2.981             29.867
 Vibrational            102.710             31.013             36.050
 Vibration     1          0.593              1.985              6.519
 Vibration     2          0.595              1.980              5.079
 Vibration     3          0.596              1.974              4.507
 Vibration     4          0.600              1.962              3.875
 Vibration     5          0.628              1.870              2.357
 Vibration     6          0.638              1.838              2.121
 Vibration     7          0.646              1.815              1.984
 Vibration     8          0.690              1.682              1.443
 Vibration     9          0.698              1.659              1.375
 Vibration    10          0.710              1.623              1.278
 Vibration    11          0.725              1.580              1.177
 Vibration    12          0.749              1.515              1.043
 Vibration    13          0.799              1.385              0.830
 Vibration    14          0.899              1.153              0.557
 Vibration    15          0.952              1.044              0.460

 Normal termination of Gaussian 09 at Tue Jan 28 08:44:45 2020.
