 Gaussian 09, Revision D.01,
 Gaussian 09:  ES64L-G09RevD.01 24-Apr-2013

 -----------------------------
 # b3lyp 6-31G(2df,p) opt Freq
 -----------------------------

 -----
 titel
 -----
 Symbolic Z-matrix:
 Charge =  0 Multiplicity = 1

 SCF Done:  E(RB3LYP) =  -423.207147506     A.U. after   14 cycles
 Optimization completed.
    -- Stationary point found.
 Normal termination of Gaussian 09 at Mon Jan 27 23:05:50 2020.

 ----------------------------------------------------------------------
 #N Geom=AllCheck Guess=TCheck SCRF=Check GenChk RB3LYP/6-31G(2df,p) Fr
 eq
 ----------------------------------------------------------------------

 Structure from the checkpoint file:  "/scratch/puck/g09_77dc0107-b082-45d7-94db-c2d932856fb6/Gau-185887.chk"
 -----
 titel
 -----
 Charge =  0 Multiplicity = 1

                         Standard orientation:
 ---------------------------------------------------------------------
 Center     Atomic      Atomic             Coordinates (Angstroms)
 Number     Number       Type             X           Y           Z
 ---------------------------------------------------------------------
      1          6           0        2.284085    0.109697    0.479482
      2          6           0        0.768603    0.083444    0.651897
      3          6           0        0.052296   -1.238876    0.262444
      4          8           0        0.680229   -1.917745   -0.815257
      5          6           0       -1.366327   -0.820835   -0.126437
      6          6           0       -2.102502    0.124474    0.760734
      7          6           0       -1.354883    0.672609   -0.449472
      8          6           0        0.034430    1.155680   -0.180838
      9          8           0        0.526276    2.175228   -0.599805
     10          1           0        2.571651   -0.214037   -0.523011
     11          1           0        2.653080    1.127178    0.628028
     12          1           0        2.773363   -0.554654    1.197130
     13          1           0        0.533180    0.298536    1.703811
     14          1           0        0.059574   -1.961164    1.084602
     15          1           0        0.618869   -1.359842   -1.599546
     16          1           0       -1.927838   -1.518929   -0.737001
     17          1           0       -3.183838    0.134945    0.682610
     18          1           0       -1.729396    0.345822    1.754648
     19          1           0       -1.914902    1.125126   -1.257633
 ---------------------------------------------------------------------

 SCF Done:  E(RB3LYP) =  -423.207147506     A.U. after    1 cycles

 The electronic state is 1-A.
 Alpha  occ. eigenvalues --  -19.14547 -19.12825 -10.26602 -10.24511 -10.21159
 Alpha  occ. eigenvalues --  -10.21020 -10.20677 -10.19521 -10.17492  -1.03961
 Alpha  occ. eigenvalues --   -1.02833  -0.89499  -0.78571  -0.69663  -0.67651
 Alpha  occ. eigenvalues --   -0.62158  -0.58792  -0.53126  -0.51120  -0.49431
 Alpha  occ. eigenvalues --   -0.48559  -0.44504  -0.43249  -0.41313  -0.40658
 Alpha  occ. eigenvalues --   -0.39117  -0.37358  -0.36019  -0.35253  -0.33930
 Alpha  occ. eigenvalues --   -0.32014  -0.29959  -0.27776  -0.23874
 Alpha virt. eigenvalues --   -0.01645   0.07122   0.08393   0.08983   0.11985
 Alpha virt. eigenvalues --    0.13764   0.15215   0.15624   0.16708   0.17314
 Alpha virt. eigenvalues --    0.17660   0.19304   0.20167   0.21127   0.22379

 Mulliken charges:
               1
     1  C   -0.396454
     2  C   -0.161017
     3  C    0.108142
     4  O   -0.422696
     5  C   -0.066162
     6  C   -0.304424
     7  C   -0.143492
     8  C    0.406709
     9  O   -0.337799
    10  H    0.121327
    11  H    0.134399
    12  H    0.114228
    13  H    0.105138
    14  H    0.093110
    15  H    0.282979
    16  H    0.103765
    17  H    0.128650
    18  H    0.125909
    19  H    0.107687
 Sum of Mulliken charges =   0.00000

 Dipole moment (field-independent basis, Debye):
    X=             -2.0048    Y=             -1.2480    Z=              0.8175  Tot=              2.4990
 Quadrupole moment (field-independent basis, Debye-Ang):
   XX=            -50.6165   YY=            -64.3082   ZZ=            -49.2490
   XY=             -0.3485   XZ=              1.3048   YZ=              1.4836

  Exact polarizability:  84.113   2.465  74.362  -0.461  -3.167  66.195
 Approx polarizability: 111.578   7.365 118.611  -4.897  -8.285 105.724

                      1                      2                      3
                      A                      A                      A
 Frequencies --     86.2207               146.3972               184.0044
 Red. masses --      5.3215                 1.1448                 2.6869
 Frc consts  --      0.0233                 0.0145                 0.0536
 IR Inten    --      4.5448                 1.0555                 0.2603

                      4                      5                      6
                      A                      A                      A
 Frequencies --    237.1553               257.2698               313.0459
 Red. masses --      3.3045                 3.0224                 1.8790
 Frc consts  --      0.1095                 0.1179                 0.1085
 IR Inten    --      3.3932                 1.8367                 8.3677

                      7                      8                      9
                      A                      A                      A
 Frequencies --    338.3291               432.0008               463.4185
 Red. masses --      1.4679                 4.4461                 4.7904
 Frc consts  --      0.0990                 0.4889                 0.6061
 IR Inten    --     90.2162                 1.8721                 6.1317

                     10                     11                     12
                      A                      A                      A
 Frequencies --    502.3140               594.5011               671.7650
 Red. masses --      3.6323                 3.9894                 4.4609
 Frc consts  --      0.5400                 0.8307                 1.1861
 IR Inten    --      1.1334                 3.2090                 0.5752

                     13                     14                     15
                      A                      A                      A
 Frequencies --    707.4461               779.3116               799.1112
 Red. masses --      3.0866                 3.1764                 2.8854
 Frc consts  --      0.9101                 1.1366                 1.0856
 IR Inten    --      6.1110                 3.2952                12.9391

                     16                     17                     18
                      A                      A                      A
 Frequencies --    829.1452               886.3386               932.0085
 Red. masses --      1.5422                 1.8808                 1.5158
 Frc consts  --      0.6247                 0.8705                 0.7758
 IR Inten    --      3.6581                11.9733                16.9223

                     19                     20                     21
                      A                      A                      A
 Frequencies --    953.7884               984.8693              1004.5603
 Red. masses --      3.1151                 2.1578                 1.8006
 Frc consts  --      1.6696                 1.2332                 1.0706
 IR Inten    --     19.7278                41.1792                12.0859

                     22                     23                     24
                      A                      A                      A
 Frequencies --   1055.5179              1067.7529              1075.8067
 Red. masses --      1.8246                 1.2043                 1.3523
 Frc consts  --      1.1977                 0.8090                 0.9221
 IR Inten    --     32.5085                 2.7947                 1.9654

                     25                     26                     27
                      A                      A                      A
 Frequencies --   1108.1132              1134.1523              1143.2513
 Red. masses --      1.2991                 2.0300                 1.9796
 Frc consts  --      0.9398                 1.5385                 1.5244
 IR Inten    --      3.7416                16.1250                29.4572

                     28                     29                     30
                      A                      A                      A
 Frequencies --   1186.1657              1196.9006              1236.7411
 Red. masses --      1.6903                 2.1729                 1.6660
 Frc consts  --      1.4012                 1.8340                 1.5013
 IR Inten    --     18.9600                20.9002                10.5660

                     31                     32                     33
                      A                      A                      A
 Frequencies --   1268.5053              1320.8807              1322.3319
 Red. masses --      1.3742                 1.5577                 1.7545
 Frc consts  --      1.3028                 1.6013                 1.8075
 IR Inten    --      4.5018                 5.2262                 8.8646

                     34                     35                     36
                      A                      A                      A
 Frequencies --   1348.6048              1363.3425              1406.9127
 Red. masses --      1.9672                 2.0572                 1.2162
 Frc consts  --      2.1080                 2.2529                 1.4184
 IR Inten    --     21.5261                 0.6957                 7.0059

                     37                     38                     39
                      A                      A                      A
 Frequencies --   1432.0162              1488.9600              1492.6562
 Red. masses --      1.2283                 1.0568                 1.1818
 Frc consts  --      1.4840                 1.3804                 1.5513
 IR Inten    --     52.0867                 5.0416                 4.5510

                     40                     41                     42
                      A                      A                      A
 Frequencies --   1497.5014              1828.5897              3012.5197
 Red. masses --      1.0518                12.2619                 1.0806
 Frc consts  --      1.3897                24.1569                 5.7781
 IR Inten    --      7.7039               227.9786                11.4532

                     43                     44                     45
                      A                      A                      A
 Frequencies --   3054.1649              3066.6905              3124.8656
 Red. masses --      1.0357                 1.0861                 1.1011
 Frc consts  --      5.6920                 6.0179                 6.3348
 IR Inten    --     21.6576                32.5786                15.5502

                     46                     47                     48
                      A                      A                      A
 Frequencies --   3136.2749              3137.0909              3178.4838
 Red. masses --      1.0945                 1.0610                 1.0909
 Frc consts  --      6.3430                 6.1520                 6.4934
 IR Inten    --      6.2429                18.8811                 7.6554

                     49                     50                     51
                      A                      A                      A
 Frequencies --   3201.7255              3222.0158              3790.6055
 Red. masses --      1.0943                 1.1145                 1.0659
 Frc consts  --      6.6096                 6.8169                 9.0236
 IR Inten    --      3.0873                 7.2217                13.2511

 - Thermochemistry -
 -------------------
 Temperature   298.150 Kelvin.  Pressure   1.00000 Atm.
 Atom     1 has atomic number  6 and mass  12.00000

 Molecular mass:   126.06808 amu.
 Principal axes and moments of inertia in atomic units:
                           1         2         3
     Eigenvalues --   869.49107 969.103581485.47807
           X            0.99990  -0.00633   0.01295
           Y            0.00623   0.99995   0.00724
           Z           -0.01299  -0.00716   0.99989
 This molecule is an asymmetric top.
 Rotational symmetry number  1.
 Warning -- assumption of classical behavior for rotation
           may cause significant error
 Rotational temperatures (Kelvin)      0.09961     0.08938     0.05831
 Rotational constants (GHZ):           2.07563     1.86228     1.21492
 Zero-point vibrational energy     418705.8 (Joules/Mol)
                                  100.07308 (Kcal/Mol)
 Warning -- explicit consideration of  11 degrees of freedom as
           vibrations may cause significant error
 Vibrational temperatures:    124.05   210.63   264.74   341.21   370.15
          (Kelvin)            450.40   486.78   621.55   666.75   722.72
                              855.35   966.52  1017.86  1121.25  1149.74
                             1192.95  1275.24  1340.95  1372.29  1417.01
                             1445.34  1518.65  1536.26  1547.84  1594.33
                             1631.79  1644.88  1706.63  1722.07  1779.39
                             1825.09  1900.45  1902.54  1940.34  1961.54
                             2024.23  2060.35  2142.28  2147.60  2154.57
                             2630.93  4334.34  4394.26  4412.28  4495.98
                             4512.39  4513.57  4573.12  4606.56  4635.76
                             5453.83

 Zero-point correction=                           0.159477 (Hartree/Particle)
 Thermal correction to Energy=                    0.167958
 Thermal correction to Enthalpy=                  0.168902
 Thermal correction to Gibbs Free Energy=         0.126570
 Sum of electronic and zero-point Energies=           -423.047671
 Sum of electronic and thermal Energies=              -423.039189
 Sum of electronic and thermal Enthalpies=            -423.038245
 Sum of electronic and thermal Free Energies=         -423.080578

                     E (Thermal)             CV                S
                      KCal/Mol        Cal/Mol-Kelvin    Cal/Mol-Kelvin
 Total                  105.395             32.747             89.096
 Electronic               0.000              0.000              0.000
 Translational            0.889              2.981             40.409
 Rotational               0.889              2.981             28.617
 Vibrational            103.618             26.785             20.070
 Vibration     1          0.601              1.959              3.744
 Vibration     2          0.617              1.907              2.719
 Vibration     3          0.631              1.862              2.287
 Vibration     4          0.656              1.784              1.824
 Vibration     5          0.667              1.750              1.680
 Vibration     6          0.701              1.649              1.346
 Vibration     7          0.719              1.599              1.220
 Vibration     8          0.793              1.401              0.852
 Vibration     9          0.821              1.331              0.756
 Vibration    10          0.858              1.245              0.652
 Vibration    11          0.952              1.043              0.459

 Optimization completed.
    -- Stationary point found.
 Normal termination of Gaussian 09 at Mon Jan 27 23:53:39 2020.
