 Gaussian 09, Revision D.01,
 Gaussian 09:  ES64L-G09RevD.01 24-Apr-2013

 -----------------------------
 # b3lyp 6-31G(2df,p) opt Freq
 -----------------------------

 -----
 titel
 -----
 Symbolic Z-matrix:
 Charge =  0 Multiplicity = 1

 SCF Done:  E(RB3LYP) =  -423.131508924     A.U. after   12 cycles
 Optimization completed.
    -- Stationary point found.
 Normal termination of Gaussian 09 at Mon Jan 27 17:28:46 2020.

 ----------------------------------------------------------------------
 #N Geom=AllCheck Guess=TCheck SCRF=Check GenChk RB3LYP/6-31G(2df,p) Fr
 eq
 ----------------------------------------------------------------------

 Structure from the checkpoint file:  "/scratch/puck/g09_09223ea4-eed9-4f82-a09a-af7d451a0089/Gau-169186.chk"
 -----
 titel
 -----
 Charge =  0 Multiplicity = 1

                         Standard orientation:
 ---------------------------------------------------------------------
 Center     Atomic      Atomic             Coordinates (Angstroms)
 Number     Number       Type             X           Y           Z
 ---------------------------------------------------------------------
      1          8           0       -2.698084   -0.790154   -0.234460
      2          6           0       -1.546754   -0.105861    0.107112
      3          6           0       -1.418584    1.383054   -0.021618
      4          6           0       -0.512454    0.479846   -0.841135
      5          6           0        0.616883   -0.028596    0.051910
      6          6           0        1.799444    0.852619    0.509206
      7          6           0        2.672879   -0.200937   -0.196302
      8          8           0        1.512985   -0.975633   -0.566480
      9          6           0       -0.437607   -0.665934    1.009384
     10          1           0       -3.386952   -0.560292    0.398756
     11          1           0       -2.207974    1.853650   -0.599412
     12          1           0       -1.016686    1.995642    0.783602
     13          1           0       -0.487442    0.510866   -1.923299
     14          1           0        1.821487    1.854846    0.077282
     15          1           0        1.934651    0.922446    1.590139
     16          1           0        3.226844    0.149379   -1.075536
     17          1           0        3.353840   -0.769081    0.448342
     18          1           0       -0.366718   -1.753287    0.933406
     19          1           0       -0.433097   -0.363019    2.062893
 ---------------------------------------------------------------------

 SCF Done:  E(RB3LYP) =  -423.131508924     A.U. after    1 cycles

 The electronic state is 1-A.
 Alpha  occ. eigenvalues --  -19.14645 -19.12666 -10.24023 -10.23904 -10.22692
 Alpha  occ. eigenvalues --  -10.18836 -10.18521 -10.18429 -10.17718  -1.03619
 Alpha  occ. eigenvalues --   -1.03060  -0.88454  -0.73806  -0.72400  -0.65639
 Alpha  occ. eigenvalues --   -0.60621  -0.57995  -0.52074  -0.51027  -0.48907
 Alpha  occ. eigenvalues --   -0.47720  -0.45641  -0.43308  -0.42103  -0.40124
 Alpha  occ. eigenvalues --   -0.38207  -0.36699  -0.34744  -0.34050  -0.31549
 Alpha  occ. eigenvalues --   -0.29874  -0.26018  -0.25299  -0.23756
 Alpha virt. eigenvalues --    0.07777   0.08366   0.09550   0.10978   0.11844
 Alpha virt. eigenvalues --    0.12717   0.13807   0.15753   0.16004   0.17096
 Alpha virt. eigenvalues --    0.17168   0.18687   0.19702   0.20813   0.22934

 Mulliken charges:
               1
     1  O   -0.463723
     2  C    0.408388
     3  C   -0.348373
     4  C   -0.187641
     5  C    0.480449
     6  C   -0.352879
     7  C   -0.077597
     8  O   -0.320870
     9  C   -0.377842
    10  H    0.284995
    11  H    0.115531
    12  H    0.103014
    13  H    0.099893
    14  H    0.112482
    15  H    0.109359
    16  H    0.102360
    17  H    0.102589
    18  H    0.126579
    19  H    0.083287
 Sum of Mulliken charges =   0.00000

 Dipole moment (field-independent basis, Debye):
    X=             -0.1734    Y=              2.0702    Z=              1.6993  Tot=              2.6839
 Quadrupole moment (field-independent basis, Debye-Ang):
   XX=            -47.1977   YY=            -55.6218   ZZ=            -52.2972
   XY=             -0.2930   XZ=             -2.1965   YZ=             -2.3637

  Exact polarizability:  91.203  -1.632  68.692  -1.585  -2.021  66.917
 Approx polarizability: 116.036  -0.525 104.187  -3.836  -0.087 102.863

                      1                      2                      3
                      A                      A                      A
 Frequencies --     72.3320               104.1543               206.6790
 Red. masses --      2.2781                 4.0813                 2.5764
 Frc consts  --      0.0070                 0.0261                 0.0648
 IR Inten    --      1.4460                 0.6243                10.1230

                      4                      5                      6
                      A                      A                      A
 Frequencies --    243.8775               334.0617               371.9831
 Red. masses --      1.1586                 3.9461                 2.9861
 Frc consts  --      0.0406                 0.2595                 0.2434
 IR Inten    --     79.4346                 2.0525                16.0526

                      7                      8                      9
                      A                      A                      A
 Frequencies --    385.0021               417.1452               448.8753
 Red. masses --      2.3374                 3.5539                 3.1173
 Frc consts  --      0.2041                 0.3644                 0.3701
 IR Inten    --      3.6559                 7.5867                 1.7213

                     10                     11                     12
                      A                      A                      A
 Frequencies --    510.0390               665.9594               765.0088
 Red. masses --      2.5048                 2.9541                 2.1728
 Frc consts  --      0.3839                 0.7719                 0.7492
 IR Inten    --      2.6511                 2.3481                 4.2541

                     13                     14                     15
                      A                      A                      A
 Frequencies --    786.7568               840.2785               861.7803
 Red. masses --      1.3587                 2.3541                 3.4850
 Frc consts  --      0.4955                 0.9793                 1.5249
 IR Inten    --      0.6143                 9.5079                 5.8731

                     16                     17                     18
                      A                      A                      A
 Frequencies --    879.4321               889.4366               950.4771
 Red. masses --      2.1739                 1.8231                 1.8600
 Frc consts  --      0.9906                 0.8497                 0.9900
 IR Inten    --     14.0421                12.9712                10.1821

                     19                     20                     21
                      A                      A                      A
 Frequencies --    962.6904               981.2566               995.7205
 Red. masses --      1.9151                 2.0662                 1.4530
 Frc consts  --      1.0457                 1.1722                 0.8488
 IR Inten    --     13.8714                 4.4213                 9.1922

                     22                     23                     24
                      A                      A                      A
 Frequencies --   1021.2750              1029.1414              1071.0621
 Red. masses --      2.7426                 4.1253                 1.3322
 Frc consts  --      1.6854                 2.5743                 0.9005
 IR Inten    --    121.0412                37.2354                15.0670

                     25                     26                     27
                      A                      A                      A
 Frequencies --   1092.1741              1140.1908              1154.7734
 Red. masses --      1.8817                 1.9342                 1.6012
 Frc consts  --      1.3225                 1.4815                 1.2580
 IR Inten    --      9.9836                25.3635                 2.5200

                     28                     29                     30
                      A                      A                      A
 Frequencies --   1174.5133              1174.7922              1213.2586
 Red. masses --      1.5074                 2.0759                 1.3374
 Frc consts  --      1.2251                 1.6880                 1.1599
 IR Inten    --      4.9094                13.2353                 5.0444

                     31                     32                     33
                      A                      A                      A
 Frequencies --   1224.5858              1249.8585              1273.6876
 Red. masses --      1.5196                 1.5372                 3.3284
 Frc consts  --      1.3426                 1.4148                 3.1813
 IR Inten    --     13.4363                20.0336                31.8056

                     34                     35                     36
                      A                      A                      A
 Frequencies --   1291.3313              1331.1627              1353.1869
 Red. masses --      1.7970                 2.3459                 1.4617
 Frc consts  --      1.7655                 2.4491                 1.5770
 IR Inten    --     36.8220                83.3331                 4.4074

                     37                     38                     39
                      A                      A                      A
 Frequencies --   1402.1364              1467.0724              1486.6811
 Red. masses --      2.0316                 1.1261                 1.1070
 Frc consts  --      2.3533                 1.4280                 1.4416
 IR Inten    --     45.5367                 2.3107                 4.0657

                     40                     41                     42
                      A                      A                      A
 Frequencies --   1503.0041              1532.6386              3018.8049
 Red. masses --      1.4779                 1.1118                 1.0551
 Frc consts  --      1.9671                 1.5387                 5.6654
 IR Inten    --     14.3641                 1.7300                95.9922

                     43                     44                     45
                      A                      A                      A
 Frequencies --   3033.0935              3058.1637              3075.1735
 Red. masses --      1.0639                 1.1114                 1.0592
 Frc consts  --      5.7668                 6.1240                 5.9013
 IR Inten    --     38.4327                35.0051                20.0625

                     46                     47                     48
                      A                      A                      A
 Frequencies --   3097.8839              3118.0847              3129.8124
 Red. masses --      1.0574                 1.1007                 1.1088
 Frc consts  --      5.9791                 6.3051                 6.3992
 IR Inten    --     19.5590                 9.6760                21.0703

                     49                     50                     51
                      A                      A                      A
 Frequencies --   3193.3299              3201.2174              3794.7167
 Red. masses --      1.1021                 1.1036                 1.0661
 Frc consts  --      6.6213                 6.6636                 9.0452
 IR Inten    --      2.6610                12.6356                22.0302

 - Thermochemistry -
 -------------------
 Temperature   298.150 Kelvin.  Pressure   1.00000 Atm.
 Atom     1 has atomic number  8 and mass  15.99491

 Molecular mass:   126.06808 amu.
 Principal axes and moments of inertia in atomic units:
                           1         2         3
     Eigenvalues --   450.301651541.894631675.94142
           X            1.00000  -0.00169   0.00059
           Y            0.00172   0.99867  -0.05159
           Z           -0.00051   0.05159   0.99867
 This molecule is an asymmetric top.
 Rotational symmetry number  1.
 Warning -- assumption of classical behavior for rotation
           may cause significant error
 Rotational temperatures (Kelvin)      0.19235     0.05617     0.05168
 Rotational constants (GHZ):           4.00785     1.17047     1.07685
 Zero-point vibrational energy     416179.3 (Joules/Mol)
                                   99.46925 (Kcal/Mol)
 Warning -- explicit consideration of  10 degrees of freedom as
           vibrations may cause significant error
 Vibrational temperatures:    104.07   149.85   297.36   350.88   480.64
          (Kelvin)            535.20   553.93   600.18   645.83   733.83
                              958.17  1100.68  1131.97  1208.97  1239.91
                             1265.31  1279.70  1367.52  1385.10  1411.81
                             1432.62  1469.39  1480.70  1541.02  1571.39
                             1640.48  1661.46  1689.86  1690.26  1745.61
                             1761.90  1798.27  1832.55  1857.94  1915.24
                             1946.93  2017.36  2110.79  2139.00  2162.48
                             2205.12  4343.38  4363.94  4400.01  4424.48
                             4457.16  4486.22  4503.10  4594.48  4605.83
                             5459.74

 Zero-point correction=                           0.158514 (Hartree/Particle)
 Thermal correction to Energy=                    0.166745
 Thermal correction to Enthalpy=                  0.167689
 Thermal correction to Gibbs Free Energy=         0.125607
 Sum of electronic and zero-point Energies=           -422.972995
 Sum of electronic and thermal Energies=              -422.964764
 Sum of electronic and thermal Enthalpies=            -422.963820
 Sum of electronic and thermal Free Energies=         -423.005902

                     E (Thermal)             CV                S
                      KCal/Mol        Cal/Mol-Kelvin    Cal/Mol-Kelvin
 Total                  104.634             32.001             88.569
 Electronic               0.000              0.000              0.000
 Translational            0.889              2.981             40.409
 Rotational               0.889              2.981             28.544
 Vibrational            102.857             26.040             19.616
 Vibration     1          0.598              1.967              4.089
 Vibration     2          0.605              1.946              3.375
 Vibration     3          0.641              1.830              2.073
 Vibration     4          0.659              1.773              1.774
 Vibration     5          0.716              1.607              1.240
 Vibration     6          0.744              1.530              1.072
 Vibration     7          0.754              1.502              1.019
 Vibration     8          0.780              1.433              0.902
 Vibration     9          0.808              1.363              0.799
 Vibration    10          0.865              1.228              0.633

 Normal termination of Gaussian 09 at Mon Jan 27 18:15:05 2020.
