 Gaussian 09, Revision D.01,
 Gaussian 09:  ES64L-G09RevD.01 24-Apr-2013

 -----------------------------
 # b3lyp 6-31G(2df,p) opt Freq
 -----------------------------

 -----
 titel
 -----
 Symbolic Z-matrix:
 Charge =  0 Multiplicity = 1

 SCF Done:  E(RB3LYP) =  -423.195202490     A.U. after   14 cycles
 Optimization completed.
    -- Stationary point found.
 Normal termination of Gaussian 09 at Mon Jan 27 13:15:33 2020.

 ----------------------------------------------------------------------
 #N Geom=AllCheck Guess=TCheck SCRF=Check GenChk RB3LYP/6-31G(2df,p) Fr
 eq
 ----------------------------------------------------------------------

 Structure from the checkpoint file:  "/scratch/puck/g09_d28e1f1c-6aef-40c1-8473-130d2a5b5649/Gau-38327.chk"
 -----
 titel
 -----
 Charge =  0 Multiplicity = 1

                         Standard orientation:
 ---------------------------------------------------------------------
 Center     Atomic      Atomic             Coordinates (Angstroms)
 Number     Number       Type             X           Y           Z
 ---------------------------------------------------------------------
      1          8           0        2.783945    0.683509   -0.443341
      2          6           0        2.053716   -0.257954   -0.251311
      3          6           0        0.651996   -0.174939    0.224546
      4          6           0        0.155092   -1.381709    1.021679
      5          6           0       -0.301301   -1.218617   -0.382424
      6          6           0       -1.714753   -0.759218   -0.695264
      7          8           0       -2.123582    0.330794    0.104054
      8          6           0       -1.264164    1.449551   -0.074211
      9          6           0        0.108918    1.210202    0.556798
     10          1           0        2.403958   -1.301689   -0.435241
     11          1           0        0.865900   -2.169735    1.249072
     12          1           0       -0.546276   -1.149718    1.815780
     13          1           0        0.126370   -1.889061   -1.123691
     14          1           0       -1.780262   -0.490569   -1.763371
     15          1           0       -2.429241   -1.567531   -0.506252
     16          1           0       -1.158792    1.663099   -1.150433
     17          1           0       -1.765534    2.302014    0.391439
     18          1           0        0.824581    1.954712    0.194948
     19          1           0        0.039366    1.330163    1.643169
 ---------------------------------------------------------------------

 SCF Done:  E(RB3LYP) =  -423.195202490     A.U. after    1 cycles

 The electronic state is 1-A.
 Alpha  occ. eigenvalues --  -19.14724 -19.13469 -10.26826 -10.24017 -10.23169
 Alpha  occ. eigenvalues --  -10.21317 -10.21267 -10.20331 -10.18693  -1.04366
 Alpha  occ. eigenvalues --   -1.04130  -0.88515  -0.77557  -0.70107  -0.67053
 Alpha  occ. eigenvalues --   -0.63271  -0.58241  -0.53519  -0.50950  -0.49440
 Alpha  occ. eigenvalues --   -0.48503  -0.46787  -0.43293  -0.41976  -0.41018
 Alpha  occ. eigenvalues --   -0.40247  -0.39566  -0.37210  -0.36996  -0.32103
 Alpha  occ. eigenvalues --   -0.30531  -0.28855  -0.25952  -0.25250
 Alpha virt. eigenvalues --   -0.01849   0.08476   0.09470   0.10744   0.11476
 Alpha virt. eigenvalues --    0.12594   0.14153   0.14412   0.15169   0.15983
 Alpha virt. eigenvalues --    0.17535   0.18729   0.19631   0.21539   0.22424

 Mulliken charges:
               1
     1  O   -0.273094
     2  C    0.105004
     3  C    0.241964
     4  C   -0.325097
     5  C   -0.081152
     6  C   -0.105970
     7  O   -0.241606
     8  C   -0.081791
     9  C   -0.312281
    10  H    0.065452
    11  H    0.119943
    12  H    0.136293
    13  H    0.096238
    14  H    0.094805
    15  H    0.115345
    16  H    0.093254
    17  H    0.110951
    18  H    0.131901
    19  H    0.109840
 Sum of Mulliken charges =   0.00000

 Dipole moment (field-independent basis, Debye):
    X=             -1.3470    Y=             -1.6604    Z=             -0.0194  Tot=              2.1382
 Quadrupole moment (field-independent basis, Debye-Ang):
   XX=            -64.6387   YY=            -50.0865   ZZ=            -51.6714
   XY=             -3.9396   XZ=              2.8264   YZ=              1.1741

  Exact polarizability:  83.585   2.984  81.030  -0.580   0.300  64.987
 Approx polarizability: 119.610  13.915 121.425  -5.116  -1.424 101.133

                      1                      2                      3
                      A                      A                      A
 Frequencies --     95.7486               137.0087               235.6405
 Red. masses --      5.0893                 2.6053                 3.5824
 Frc consts  --      0.0275                 0.0288                 0.1172
 IR Inten    --      5.6217                 2.9201                 3.6980

                      4                      5                      6
                      A                      A                      A
 Frequencies --    258.7775               325.1686               365.0588
 Red. masses --      2.7018                 3.1502                 2.6892
 Frc consts  --      0.1066                 0.1962                 0.2112
 IR Inten    --      3.2954                 6.7104                 0.8401

                      7                      8                      9
                      A                      A                      A
 Frequencies --    406.1017               442.3665               516.0230
 Red. masses --      1.9606                 2.7817                 3.1203
 Frc consts  --      0.1905                 0.3207                 0.4895
 IR Inten    --      3.4109                 2.6289                 3.7348

                     10                     11                     12
                      A                      A                      A
 Frequencies --    562.8661               686.3247               747.9713
 Red. masses --      4.6200                 2.3314                 3.9320
 Frc consts  --      0.8624                 0.6470                 1.2961
 IR Inten    --     15.1799                 1.2621                 4.7647

                     13                     14                     15
                      A                      A                      A
 Frequencies --    762.0699               852.7850               869.9126
 Red. masses --      3.1936                 1.9184                 2.7949
 Frc consts  --      1.0927                 0.8220                 1.2461
 IR Inten    --      0.7634                 0.7003                22.0040

                     16                     17                     18
                      A                      A                      A
 Frequencies --    910.4032               940.4010               969.1175
 Red. masses --      1.7698                 1.4188                 2.1758
 Frc consts  --      0.8642                 0.7393                 1.2040
 IR Inten    --      4.0441                29.7806                26.0455

                     19                     20                     21
                      A                      A                      A
 Frequencies --   1000.5719              1045.8503              1067.8792
 Red. masses --      2.4254                 1.8050                 1.5356
 Frc consts  --      1.4306                 1.1632                 1.0318
 IR Inten    --     19.6248                 2.0529                27.9467

                     22                     23                     24
                      A                      A                      A
 Frequencies --   1082.0131              1097.4643              1110.1958
 Red. masses --      1.7064                 1.8519                 1.8265
 Frc consts  --      1.1771                 1.3142                 1.3264
 IR Inten    --      9.1992                 3.0257                17.9995

                     25                     26                     27
                      A                      A                      A
 Frequencies --   1127.0961              1156.0271              1206.7161
 Red. masses --      2.0005                 2.9016                 1.5348
 Frc consts  --      1.4973                 2.2847                 1.3168
 IR Inten    --      2.1352                55.5847                15.0150

                     28                     29                     30
                      A                      A                      A
 Frequencies --   1266.7420              1276.5825              1317.4173
 Red. masses --      1.1851                 1.5359                 1.7168
 Frc consts  --      1.1205                 1.4747                 1.7555
 IR Inten    --     10.5409                19.0404                17.8012

                     31                     32                     33
                      A                      A                      A
 Frequencies --   1326.1320              1369.0725              1392.1842
 Red. masses --      1.4323                 1.5171                 1.3843
 Frc consts  --      1.4840                 1.6754                 1.5808
 IR Inten    --      2.4004                 3.5226                 2.3553

                     34                     35                     36
                      A                      A                      A
 Frequencies --   1401.5387              1425.9179              1439.3970
 Red. masses --      1.7732                 1.2740                 1.2833
 Frc consts  --      2.0522                 1.5262                 1.5666
 IR Inten    --      5.3670                13.0680                 2.6373

                     37                     38                     39
                      A                      A                      A
 Frequencies --   1478.1596              1490.7207              1494.4194
 Red. masses --      1.2795                 1.1331                 1.1111
 Frc consts  --      1.6471                 1.4836                 1.4620
 IR Inten    --      2.6614                 7.4247                 0.4408

                     40                     41                     42
                      A                      A                      A
 Frequencies --   1506.2629              1812.2232              2847.1785
 Red. masses --      1.1034                10.6347                 1.0818
 Frc consts  --      1.4750                20.5777                 5.1668
 IR Inten    --      2.9140               248.8808               108.5156

                     43                     44                     45
                      A                      A                      A
 Frequencies --   2962.0406              2975.3220              3044.5936
 Red. masses --      1.0700                 1.0706                 1.0629
 Frc consts  --      5.5313                 5.5839                 5.8051
 IR Inten    --     51.8053                62.5865                19.2104

                     46                     47                     48
                      A                      A                      A
 Frequencies --   3067.3862              3091.5373              3098.5387
 Red. masses --      1.0920                 1.0919                 1.1012
 Frc consts  --      6.0533                 6.1489                 6.2292
 IR Inten    --     31.8508                29.7822                16.6809

                     49                     50                     51
                      A                      A                      A
 Frequencies --   3130.4633              3141.1764              3222.1945
 Red. masses --      1.0537                 1.0882                 1.1166
 Frc consts  --      6.0841                 6.3263                 6.8305
 IR Inten    --     10.1543                13.5872                 3.6972

 - Thermochemistry -
 -------------------
 Temperature   298.150 Kelvin.  Pressure   1.00000 Atm.
 Atom     1 has atomic number  8 and mass  15.99491

 Molecular mass:   126.06808 amu.
 Principal axes and moments of inertia in atomic units:
                           1         2         3
     Eigenvalues --   610.910611326.806561634.35533
           X            0.99968  -0.02115   0.01410
           Y            0.02098   0.99971   0.01197
           Z           -0.01435  -0.01167   0.99983
 This molecule is an asymmetric top.
 Rotational symmetry number  1.
 Warning -- assumption of classical behavior for rotation
           may cause significant error
 Rotational temperatures (Kelvin)      0.14178     0.06528     0.05300
 Rotational constants (GHZ):           2.95418     1.36021     1.10425
 Zero-point vibrational energy     422011.2 (Joules/Mol)
                                  100.86309 (Kcal/Mol)
 Warning -- explicit consideration of  10 degrees of freedom as
           vibrations may cause significant error
 Vibrational temperatures:    137.76   197.12   339.03   372.32   467.84
          (Kelvin)            525.24   584.29   636.47   742.44   809.84
                              987.47  1076.16  1096.45  1226.97  1251.61
                             1309.87  1353.03  1394.34  1439.60  1504.74
                             1536.44  1556.77  1579.00  1597.32  1621.64
                             1663.26  1736.19  1822.56  1836.72  1895.47
                             1908.01  1969.79  2003.04  2016.50  2051.58
                             2070.97  2126.74  2144.81  2150.13  2167.17
                             2607.38  4096.45  4261.71  4280.82  4380.49
                             4413.28  4448.03  4458.10  4504.03  4519.45
                             4636.01

 Zero-point correction=                           0.160736 (Hartree/Particle)
 Thermal correction to Energy=                    0.168563
 Thermal correction to Enthalpy=                  0.169507
 Thermal correction to Gibbs Free Energy=         0.128368
 Sum of electronic and zero-point Energies=           -423.034467
 Sum of electronic and thermal Energies=              -423.026640
 Sum of electronic and thermal Enthalpies=            -423.025695
 Sum of electronic and thermal Free Energies=         -423.066834

                     E (Thermal)             CV                S
                      KCal/Mol        Cal/Mol-Kelvin    Cal/Mol-Kelvin
 Total                  105.775             30.474             86.584
 Electronic               0.000              0.000              0.000
 Translational            0.889              2.981             40.409
 Rotational               0.889              2.981             28.673
 Vibrational            103.997             24.512             17.502
 Vibration     1          0.603              1.952              3.539
 Vibration     2          0.614              1.916              2.845
 Vibration     3          0.655              1.786              1.836
 Vibration     4          0.668              1.748              1.670
 Vibration     5          0.709              1.625              1.284
 Vibration     6          0.738              1.544              1.100
 Vibration     7          0.771              1.457              0.940
 Vibration     8          0.802              1.378              0.819
 Vibration     9          0.871              1.215              0.619
 Vibration    10          0.919              1.112              0.518

 Optimization completed.
    -- Stationary point found.
 Normal termination of Gaussian 09 at Mon Jan 27 14:00:02 2020.
