 Gaussian 09, Revision D.01,
 Gaussian 09:  ES64L-G09RevD.01 24-Apr-2013

 -----------------------------
 # b3lyp 6-31G(2df,p) opt Freq
 -----------------------------

 -----
 titel
 -----
 Symbolic Z-matrix:
 Charge =  0 Multiplicity = 1

 SCF Done:  E(RB3LYP) =  -423.190124030     A.U. after   14 cycles
 Optimization completed.
    -- Stationary point found.
 Normal termination of Gaussian 09 at Mon Jan 27 13:15:54 2020.

 ----------------------------------------------------------------------
 #N Geom=AllCheck Guess=TCheck SCRF=Check GenChk RB3LYP/6-31G(2df,p) Fr
 eq
 ----------------------------------------------------------------------

 Structure from the checkpoint file:  "/scratch/puck/g09_5870eccd-3176-457a-b951-8230a2921f45/Gau-169388.chk"
 -----
 titel
 -----
 Charge =  0 Multiplicity = 1

                         Standard orientation:
 ---------------------------------------------------------------------
 Center     Atomic      Atomic             Coordinates (Angstroms)
 Number     Number       Type             X           Y           Z
 ---------------------------------------------------------------------
      1          8           0        2.662129   -0.480187   -0.349100
      2          6           0        1.846959    0.406157   -0.284648
      3          6           0        0.432781    0.260943    0.205180
      4          6           0       -0.196275    1.534805    0.843198
      5          6           0       -1.372322    1.491662   -0.166233
      6          6           0       -0.688018    0.320551   -0.922289
      7          6           0       -1.367136   -1.042448   -0.801259
      8          8           0       -1.204213   -1.419808    0.557892
      9          6           0        0.134133   -1.073071    0.904893
     10          1           0        2.104184    1.438071   -0.622074
     11          1           0       -0.458490    1.433841    1.898897
     12          1           0        0.440753    2.417673    0.730213
     13          1           0       -2.326869    1.205290    0.281745
     14          1           0       -1.521097    2.400940   -0.752234
     15          1           0       -0.350951    0.547867   -1.935334
     16          1           0       -2.439344   -1.015663   -1.017848
     17          1           0       -0.888033   -1.773402   -1.473305
     18          1           0        0.190126   -1.014262    1.994970
     19          1           0        0.845663   -1.831987    0.551583
 ---------------------------------------------------------------------

 SCF Done:  E(RB3LYP) =  -423.190124030     A.U. after    1 cycles

 The electronic state is 1-A.
 Alpha  occ. eigenvalues --  -19.14337 -19.14195 -10.27299 -10.23219 -10.22688
 Alpha  occ. eigenvalues --  -10.20553 -10.20482 -10.19580 -10.19168  -1.05070
 Alpha  occ. eigenvalues --   -1.03980  -0.85808  -0.75206  -0.71080  -0.66437
 Alpha  occ. eigenvalues --   -0.61930  -0.58277  -0.54791  -0.50837  -0.48868
 Alpha  occ. eigenvalues --   -0.47432  -0.44379  -0.44247  -0.42804  -0.42044
 Alpha  occ. eigenvalues --   -0.40354  -0.37908  -0.35492  -0.34729  -0.32748
 Alpha  occ. eigenvalues --   -0.31270  -0.30574  -0.26430  -0.24728
 Alpha virt. eigenvalues --   -0.02994   0.07899   0.09126   0.10447   0.11081
 Alpha virt. eigenvalues --    0.12892   0.13344   0.14069   0.15396   0.15696
 Alpha virt. eigenvalues --    0.17662   0.18744   0.19136   0.21298   0.22930

 Mulliken charges:
               1
     1  O   -0.258045
     2  C    0.087408
     3  C    0.226744
     4  C   -0.288447
     5  C   -0.218922
     6  C   -0.074868
     7  C   -0.094435
     8  O   -0.254150
     9  C   -0.154215
    10  H    0.073422
    11  H    0.112079
    12  H    0.105119
    13  H    0.115302
    14  H    0.103909
    15  H    0.081120
    16  H    0.112158
    17  H    0.096693
    18  H    0.111308
    19  H    0.117821
 Sum of Mulliken charges =   0.00000

 Dipole moment (field-independent basis, Debye):
    X=             -1.4553    Y=              2.2000    Z=             -0.5813  Tot=              2.7011
 Quadrupole moment (field-independent basis, Debye-Ang):
   XX=            -61.0098   YY=            -53.9425   ZZ=            -51.0310
   XY=              1.4215   XZ=              3.2323   YZ=              0.7560

  Exact polarizability:  81.537  -2.730  76.784   1.829   0.470  67.133
 Approx polarizability: 119.597  -8.127 111.399   0.827  -0.475 101.573

                      1                      2                      3
                      A                      A                      A
 Frequencies --     59.9418                70.2886               215.4239
 Red. masses --      3.8656                 2.2587                 3.0202
 Frc consts  --      0.0082                 0.0066                 0.0826
 IR Inten    --      5.0413                 1.4377                 3.6650

                      4                      5                      6
                      A                      A                      A
 Frequencies --    234.6064               263.9510               365.2972
 Red. masses --      3.9452                 2.5510                 2.0347
 Frc consts  --      0.1279                 0.1047                 0.1600
 IR Inten    --      5.5861                 1.9717                 2.3762

                      7                      8                      9
                      A                      A                      A
 Frequencies --    388.2115               473.7249               574.6355
 Red. masses --      1.9408                 4.6113                 3.9310
 Frc consts  --      0.1723                 0.6097                 0.7648
 IR Inten    --      0.6380                 1.3978                 5.1447

                     10                     11                     12
                      A                      A                      A
 Frequencies --    684.9738               716.0323               760.6572
 Red. masses --      3.9390                 2.2781                 1.7881
 Frc consts  --      1.0889                 0.6882                 0.6096
 IR Inten    --     14.2747                15.1449                 3.8823

                     13                     14                     15
                      A                      A                      A
 Frequencies --    805.5758               860.6482               867.8848
 Red. masses --      2.3609                 2.6021                 2.9620
 Frc consts  --      0.9027                 1.1356                 1.3145
 IR Inten    --      0.6760                 3.0173                 3.2254

                     16                     17                     18
                      A                      A                      A
 Frequencies --    931.4153               948.5694               968.5830
 Red. masses --      1.7507                 3.6024                 2.5790
 Frc consts  --      0.8949                 1.9098                 1.4255
 IR Inten    --     16.8764                25.3848                 2.8482

                     19                     20                     21
                      A                      A                      A
 Frequencies --   1001.6681              1017.7177              1034.6778
 Red. masses --      1.9206                 1.8383                 1.6867
 Frc consts  --      1.1354                 1.1218                 1.0639
 IR Inten    --      5.4465                11.2536                 8.6487

                     22                     23                     24
                      A                      A                      A
 Frequencies --   1080.1067              1110.4228              1142.9406
 Red. masses --      2.4409                 4.1477                 1.7727
 Frc consts  --      1.6778                 3.0133                 1.3644
 IR Inten    --      6.0061                45.6077                 8.2750

                     25                     26                     27
                      A                      A                      A
 Frequencies --   1168.6993              1183.0723              1230.5396
 Red. masses --      2.6496                 1.6485                 1.2708
 Frc consts  --      2.1322                 1.3594                 1.1337
 IR Inten    --     12.9561                 6.7428                 5.7432

                     28                     29                     30
                      A                      A                      A
 Frequencies --   1233.6790              1266.0540              1278.3282
 Red. masses --      1.2955                 1.5821                 1.4112
 Frc consts  --      1.1617                 1.4942                 1.3587
 IR Inten    --      2.5696                 7.8791                 0.4859

                     31                     32                     33
                      A                      A                      A
 Frequencies --   1287.1990              1293.2054              1326.0612
 Red. masses --      1.3352                 1.5186                 1.6631
 Frc consts  --      1.3034                 1.4964                 1.7230
 IR Inten    --     10.4316                 5.0544                 0.4937

                     34                     35                     36
                      A                      A                      A
 Frequencies --   1361.1156              1392.9829              1430.5063
 Red. masses --      1.4047                 1.3678                 1.1958
 Frc consts  --      1.5333                 1.5638                 1.4418
 IR Inten    --      3.4677                 7.9254                 3.1348

                     37                     38                     39
                      A                      A                      A
 Frequencies --   1470.1778              1487.8916              1500.5532
 Red. masses --      1.0839                 1.1188                 1.0846
 Frc consts  --      1.3803                 1.4592                 1.4389
 IR Inten    --      1.1535                 2.6122                 0.2155

                     40                     41                     42
                      A                      A                      A
 Frequencies --   1515.3850              1814.9808              2850.7179
 Red. masses --      1.0997                10.8903                 1.0820
 Frc consts  --      1.4879                21.1366                 5.1809
 IR Inten    --      3.3350               184.2131               112.2182

                     43                     44                     45
                      A                      A                      A
 Frequencies --   2971.7814              3017.5524              3048.7684
 Red. masses --      1.0698                 1.0648                 1.0604
 Frc consts  --      5.5664                 5.7125                 5.8072
 IR Inten    --     61.0067                31.7393                32.1119

                     46                     47                     48
                      A                      A                      A
 Frequencies --   3066.4927              3084.6378              3092.4305
 Red. masses --      1.0594                 1.0932                 1.0899
 Frc consts  --      5.8692                 6.1284                 6.1412
 IR Inten    --     31.4793                27.8008                25.0519

                     49                     50                     51
                      A                      A                      A
 Frequencies --   3096.6425              3103.5398              3124.2113
 Red. masses --      1.1002                 1.1029                 1.1071
 Frc consts  --      6.2158                 6.2589                 6.3668
 IR Inten    --     12.5582                 5.0067                35.4741

 - Thermochemistry -
 -------------------
 Temperature   298.150 Kelvin.  Pressure   1.00000 Atm.
 Atom     1 has atomic number  8 and mass  15.99491

 Molecular mass:   126.06808 amu.
 Principal axes and moments of inertia in atomic units:
                           1         2         3
     Eigenvalues --   747.695051117.102131426.06057
           X            0.99973  -0.01063   0.02053
           Y            0.01024   0.99977   0.01886
           Z           -0.02073  -0.01864   0.99961
 This molecule is an asymmetric top.
 Rotational symmetry number  1.
 Warning -- assumption of classical behavior for rotation
           may cause significant error
 Rotational temperatures (Kelvin)      0.11584     0.07753     0.06074
 Rotational constants (GHZ):           2.41374     1.61556     1.26554
 Zero-point vibrational energy     420338.8 (Joules/Mol)
                                  100.46338 (Kcal/Mol)
 Warning -- explicit consideration of   9 degrees of freedom as
           vibrations may cause significant error
 Vibrational temperatures:     86.24   101.13   309.95   337.55   379.77
          (Kelvin)            525.58   558.55   681.58   826.77   985.52
                             1030.21  1094.41  1159.04  1238.28  1248.69
                             1340.10  1364.78  1393.57  1441.18  1464.27
                             1488.67  1554.03  1597.65  1644.43  1681.50
                             1702.17  1770.47  1774.99  1821.57  1839.23
                             1851.99  1860.63  1907.90  1958.34  2004.19
                             2058.18  2115.26  2140.74  2158.96  2180.30
                             2611.35  4101.54  4275.73  4341.58  4386.49
                             4411.99  4438.10  4449.31  4455.37  4465.30
                             4495.04

 Zero-point correction=                           0.160099 (Hartree/Particle)
 Thermal correction to Energy=                    0.168131
 Thermal correction to Enthalpy=                  0.169075
 Thermal correction to Gibbs Free Energy=         0.126805
 Sum of electronic and zero-point Energies=           -423.030025
 Sum of electronic and thermal Energies=              -423.021994
 Sum of electronic and thermal Enthalpies=            -423.021049
 Sum of electronic and thermal Free Energies=         -423.063319

                     E (Thermal)             CV                S
                      KCal/Mol        Cal/Mol-Kelvin    Cal/Mol-Kelvin
 Total                  105.503             30.231             88.963
 Electronic               0.000              0.000              0.000
 Translational            0.889              2.981             40.409
 Rotational               0.889              2.981             28.567
 Vibrational            103.726             24.269             19.987
 Vibration     1          0.597              1.973              4.459
 Vibration     2          0.598              1.968              4.145
 Vibration     3          0.645              1.818              1.997
 Vibration     4          0.654              1.788              1.843
 Vibration     5          0.671              1.739              1.635
 Vibration     6          0.739              1.544              1.099
 Vibration     7          0.756              1.495              1.007
 Vibration     8          0.831              1.308              0.727
 Vibration     9          0.931              1.086              0.495

 Optimization completed.
    -- Stationary point found.
 Normal termination of Gaussian 09 at Mon Jan 27 14:01:29 2020.
