 Gaussian 09, Revision D.01,
 Gaussian 09:  ES64L-G09RevD.01 24-Apr-2013

 -----------------------------
 # b3lyp 6-31G(2df,p) opt Freq
 -----------------------------

 -----
 titel
 -----
 Symbolic Z-matrix:
 Charge =  0 Multiplicity = 1

 SCF Done:  E(RB3LYP) =  -423.157455554     A.U. after   13 cycles
 Optimization completed.
    -- Stationary point found.
 Normal termination of Gaussian 09 at Mon Jan 27 12:06:56 2020.

 ----------------------------------------------------------------------
 #N Geom=AllCheck Guess=TCheck SCRF=Check GenChk RB3LYP/6-31G(2df,p) Fr
 eq
 ----------------------------------------------------------------------

 Structure from the checkpoint file:  "/scratch/puck/g09_6144e322-21d8-4384-b083-713599b689e4/Gau-25503.chk"
 -----
 titel
 -----
 Charge =  0 Multiplicity = 1

                         Standard orientation:
 ---------------------------------------------------------------------
 Center     Atomic      Atomic             Coordinates (Angstroms)
 Number     Number       Type             X           Y           Z
 ---------------------------------------------------------------------
      1          6           0        2.061214    0.272542    0.845237
      2          6           0        2.250201   -0.336643   -0.529173
      3          6           0        0.871430   -0.014059   -0.048826
      4          8           0        0.267960    1.074896   -0.688229
      5          6           0       -0.827005    1.595879    0.053548
      6          6           0       -1.996858    0.604970    0.098245
      7          6           0       -1.513318   -0.794909    0.440298
      8          8           0       -0.984778   -1.557910   -0.652069
      9          6           0       -0.074942   -1.101524    0.349497
     10          1           0        2.227075   -0.349874    1.718426
     11          1           0        2.329502    1.315463    0.967487
     12          1           0        2.641884    0.305783   -1.309169
     13          1           0        2.538963   -1.378989   -0.605084
     14          1           0       -0.500645    1.840031    1.076729
     15          1           0       -1.116076    2.526479   -0.441874
     16          1           0       -2.731565    0.940901    0.838470
     17          1           0       -2.500607    0.569968   -0.873468
     18          1           0       -2.131128   -1.376852    1.123830
     19          1           0        0.352810   -1.886327    0.974089
 ---------------------------------------------------------------------

 SCF Done:  E(RB3LYP) =  -423.157455554     A.U. after    1 cycles

 The electronic state is 1-A.
 Alpha  occ. eigenvalues --  -19.14491 -19.14481 -10.24171 -10.23718 -10.23666
 Alpha  occ. eigenvalues --  -10.23097 -10.18833 -10.18801 -10.18683  -1.07261
 Alpha  occ. eigenvalues --   -1.03750  -0.85555  -0.77035  -0.69041  -0.65737
 Alpha  occ. eigenvalues --   -0.61358  -0.59895  -0.53694  -0.52013  -0.50822
 Alpha  occ. eigenvalues --   -0.48085  -0.44620  -0.43451  -0.42168  -0.41521
 Alpha  occ. eigenvalues --   -0.39226  -0.37452  -0.36328  -0.34292  -0.31723
 Alpha  occ. eigenvalues --   -0.31011  -0.26982  -0.26345  -0.24559
 Alpha virt. eigenvalues --    0.08508   0.08912   0.10757   0.11226   0.12016
 Alpha virt. eigenvalues --    0.12471   0.14054   0.15235   0.15694   0.16148
 Alpha virt. eigenvalues --    0.18466   0.19467   0.20009   0.21024   0.22236

 Mulliken charges:
               1
     1  C   -0.332912
     2  C   -0.325971
     3  C    0.433994
     4  O   -0.287804
     5  C   -0.093514
     6  C   -0.237154
     7  C    0.030178
     8  O   -0.253183
     9  C   -0.024921
    10  H    0.112482
    11  H    0.122163
    12  H    0.130097
    13  H    0.119794
    14  H    0.091070
    15  H    0.108024
    16  H    0.099666
    17  H    0.125568
    18  H    0.092132
    19  H    0.090294
 Sum of Mulliken charges =   0.00000

 Dipole moment (field-independent basis, Debye):
    X=             -0.1442    Y=              0.7386    Z=              2.2490  Tot=              2.3716
 Quadrupole moment (field-independent basis, Debye-Ang):
   XX=            -49.9628   YY=            -53.2204   ZZ=            -54.1370
   XY=             -3.2369   XZ=             -1.5185   YZ=             -1.9128

  Exact polarizability:  89.112  -4.204  72.519  -0.898  -0.483  64.225
 Approx polarizability: 117.239  -5.008 103.035   0.064   2.345 103.934

                      1                      2                      3
                      A                      A                      A
 Frequencies --    100.6341               202.7280               238.8361
 Red. masses --      3.1909                 3.0672                 2.1741
 Frc consts  --      0.0190                 0.0743                 0.0731
 IR Inten    --      1.7048                 1.6618                 0.9399

                      4                      5                      6
                      A                      A                      A
 Frequencies --    296.1460               358.2778               384.0585
 Red. masses --      2.7111                 3.0981                 3.8168
 Frc consts  --      0.1401                 0.2343                 0.3317
 IR Inten    --      0.2906                 3.6764                 1.7128

                      7                      8                      9
                      A                      A                      A
 Frequencies --    445.3714               493.1854               559.8756
 Red. masses --      2.9506                 4.7372                 4.0160
 Frc consts  --      0.3448                 0.6789                 0.7417
 IR Inten    --      0.8223                 8.1282                10.2322

                     10                     11                     12
                      A                      A                      A
 Frequencies --    649.6642               766.7418               772.7169
 Red. masses --      2.4344                 1.1650                 2.5612
 Frc consts  --      0.6054                 0.4035                 0.9010
 IR Inten    --      0.9923                 1.6058                11.4146

                     13                     14                     15
                      A                      A                      A
 Frequencies --    798.9656               844.2719               885.1321
 Red. masses --      3.1639                 2.1855                 2.8355
 Frc consts  --      1.1900                 0.9178                 1.3089
 IR Inten    --      9.8986                15.4892                 2.7819

                     16                     17                     18
                      A                      A                      A
 Frequencies --    900.7896               933.2571               945.4167
 Red. masses --      2.0213                 2.3552                 1.8480
 Frc consts  --      0.9663                 1.2086                 0.9732
 IR Inten    --     10.8069                19.1472                13.4987

                     19                     20                     21
                      A                      A                      A
 Frequencies --    966.3855              1002.5904              1009.1464
 Red. masses --      2.9715                 2.3454                 3.0082
 Frc consts  --      1.6350                 1.3890                 1.8049
 IR Inten    --      9.1061                 5.9364                 0.9820

                     22                     23                     24
                      A                      A                      A
 Frequencies --   1051.2635              1061.2660              1077.7666
 Red. masses --      1.4939                 1.3722                 1.4089
 Frc consts  --      0.9728                 0.9106                 0.9642
 IR Inten    --      5.4017                14.9739                 1.4333

                     25                     26                     27
                      A                      A                      A
 Frequencies --   1102.3059              1121.7978              1147.1415
 Red. masses --      2.9558                 2.1485                 1.5438
 Frc consts  --      2.1161                 1.5930                 1.1970
 IR Inten    --     65.4892                18.0377                 5.7062

                     28                     29                     30
                      A                      A                      A
 Frequencies --   1189.6464              1247.4303              1273.6578
 Red. masses --      1.2783                 1.2886                 1.4979
 Frc consts  --      1.0659                 1.1814                 1.4317
 IR Inten    --      0.0444                 4.3744                15.0264

                     31                     32                     33
                      A                      A                      A
 Frequencies --   1282.6858              1294.0282              1317.5015
 Red. masses --      1.3425                 2.1889                 1.8099
 Frc consts  --      1.3014                 2.1596                 1.8510
 IR Inten    --      5.9341                23.8691                42.3827

                     34                     35                     36
                      A                      A                      A
 Frequencies --   1366.4937              1386.4538              1419.1967
 Red. masses --      1.4569                 1.6602                 1.3418
 Frc consts  --      1.6028                 1.8803                 1.5923
 IR Inten    --      4.5292                10.9229                 9.5497

                     37                     38                     39
                      A                      A                      A
 Frequencies --   1451.6045              1463.3482              1471.1606
 Red. masses --      1.0948                 1.5367                 1.3877
 Frc consts  --      1.3592                 1.9388                 1.7695
 IR Inten    --      2.9202                 3.6146                 8.5791

                     40                     41                     42
                      A                      A                      A
 Frequencies --   1492.2875              1507.9276              2983.0188
 Red. masses --      1.3302                 1.4214                 1.0699
 Frc consts  --      1.7453                 1.9042                 5.6091
 IR Inten    --      2.4307                 7.6905                44.5889

                     43                     44                     45
                      A                      A                      A
 Frequencies --   3042.3297              3084.5540              3095.4822
 Red. masses --      1.0599                 1.0983                 1.0977
 Frc consts  --      5.7800                 6.1568                 6.1970
 IR Inten    --     21.2087                21.6149                31.6979

                     46                     47                     48
                      A                      A                      A
 Frequencies --   3102.4199              3114.8606              3133.0209
 Red. masses --      1.0861                 1.0921                 1.0533
 Frc consts  --      6.1589                 6.2429                 6.0916
 IR Inten    --     17.4266                45.9051                13.2059

                     49                     50                     51
                      A                      A                      A
 Frequencies --   3141.0663              3220.7608              3235.5186
 Red. masses --      1.0561                 1.1181                 1.1160
 Frc consts  --      6.1389                 6.8334                 6.8832
 IR Inten    --      7.5687                 1.1932                 8.4247

 - Thermochemistry -
 -------------------
 Temperature   298.150 Kelvin.  Pressure   1.00000 Atm.
 Atom     1 has atomic number  6 and mass  12.00000

 Molecular mass:   126.06808 amu.
 Principal axes and moments of inertia in atomic units:
                           1         2         3
     Eigenvalues --   635.828871095.141851436.29081
           X            0.99897  -0.04522  -0.00453
           Y            0.04517   0.99892  -0.01064
           Z            0.00501   0.01042   0.99993
 This molecule is an asymmetric top.
 Rotational symmetry number  1.
 Warning -- assumption of classical behavior for rotation
           may cause significant error
 Rotational temperatures (Kelvin)      0.13622     0.07909     0.06030
 Rotational constants (GHZ):           2.83841     1.64795     1.25653
 Zero-point vibrational energy     421278.0 (Joules/Mol)
                                  100.68786 (Kcal/Mol)
 Warning -- explicit consideration of   9 degrees of freedom as
           vibrations may cause significant error
 Vibrational temperatures:    144.79   291.68   343.63   426.09   515.48
          (Kelvin)            552.57   640.79   709.58   805.54   934.72
                             1103.17  1111.77  1149.53  1214.72  1273.51
                             1296.03  1342.75  1360.24  1390.41  1442.50
                             1451.93  1512.53  1526.92  1550.66  1585.97
                             1614.01  1650.48  1711.63  1794.77  1832.51
                             1845.50  1861.82  1895.59  1966.08  1994.80
                             2041.90  2088.53  2105.43  2116.67  2147.07
                             2169.57  4291.89  4377.23  4437.98  4453.70
                             4463.68  4481.58  4507.71  4519.29  4633.95
                             4655.18

 Zero-point correction=                           0.160456 (Hartree/Particle)
 Thermal correction to Energy=                    0.167920
 Thermal correction to Enthalpy=                  0.168864
 Thermal correction to Gibbs Free Energy=         0.128715
 Sum of electronic and zero-point Energies=           -422.996999
 Sum of electronic and thermal Energies=              -422.989536
 Sum of electronic and thermal Enthalpies=            -422.988592
 Sum of electronic and thermal Free Energies=         -423.028741

                     E (Thermal)             CV                S
                      KCal/Mol        Cal/Mol-Kelvin    Cal/Mol-Kelvin
 Total                  105.371             30.118             84.501
 Electronic               0.000              0.000              0.000
 Translational            0.889              2.981             40.409
 Rotational               0.889              2.981             28.394
 Vibrational            103.594             24.156             15.698
 Vibration     1          0.604              1.949              3.442
 Vibration     2          0.639              1.836              2.108
 Vibration     3          0.657              1.781              1.812
 Vibration     4          0.690              1.681              1.439
 Vibration     5          0.733              1.558              1.130
 Vibration     6          0.753              1.504              1.023
 Vibration     7          0.805              1.371              0.810
 Vibration     8          0.849              1.265              0.675
 Vibration     9          0.915              1.118              0.524

 Optimization completed.
    -- Stationary point found.
 Normal termination of Gaussian 09 at Mon Jan 27 12:56:41 2020.
