 Gaussian 09, Revision D.01,
 Gaussian 09:  ES64L-G09RevD.01 24-Apr-2013

 -----------------------------
 # b3lyp 6-31G(2df,p) opt Freq
 -----------------------------

 -----
 titel
 -----
 Symbolic Z-matrix:
 Charge =  0 Multiplicity = 1

 SCF Done:  E(RB3LYP) =  -423.178540555     A.U. after   13 cycles
 Optimization completed.
    -- Stationary point found.
 Normal termination of Gaussian 09 at Tue Jan 28 00:03:11 2020.

 ----------------------------------------------------------------------
 #N Geom=AllCheck Guess=TCheck SCRF=Check GenChk RB3LYP/6-31G(2df,p) Fr
 eq
 ----------------------------------------------------------------------

 Structure from the checkpoint file:  "/scratch/puck/g09_838ee9c4-a03c-465a-895d-9516f2a8f3d0/Gau-184673.chk"
 -----
 titel
 -----
 Charge =  0 Multiplicity = 1

                         Standard orientation:
 ---------------------------------------------------------------------
 Center     Atomic      Atomic             Coordinates (Angstroms)
 Number     Number       Type             X           Y           Z
 ---------------------------------------------------------------------
      1          8           0        1.957185   -1.136589   -0.104617
      2          6           0        0.553572   -0.965265   -0.026918
      3          6           0        0.074065   -0.013206   -1.139087
      4          6           0        0.817356    1.298837   -0.757005
      5          6           0        0.824530    1.263528    0.809006
      6          6           0        0.075773   -0.057777    1.138275
      7          6           0       -1.376368    0.201901    0.742362
      8          8           0       -2.023892   -0.835181   -0.012123
      9          6           0       -1.377431    0.228790   -0.727308
     10          1           0        2.217622   -1.756039    0.583501
     11          1           0        0.034761   -1.925609   -0.047893
     12          1           0        0.238765   -0.356587   -2.160960
     13          1           0        1.833278    1.291813   -1.154537
     14          1           0        0.307181    2.181296   -1.154346
     15          1           0        1.845736    1.229151    1.192508
     16          1           0        0.329043    2.132081    1.252655
     17          1           0        0.237623   -0.441807    2.147913
     18          1           0       -2.029552    0.814207    1.357889
     19          1           0       -2.029793    0.864806   -1.318753
 ---------------------------------------------------------------------

 SCF Done:  E(RB3LYP) =  -423.178540555     A.U. after    1 cycles

 The electronic state is 1-A.
 Alpha  occ. eigenvalues --  -19.14701 -19.13850 -10.23130 -10.23090 -10.22586
 Alpha  occ. eigenvalues --  -10.18738 -10.18675 -10.18084 -10.17973  -1.06909
 Alpha  occ. eigenvalues --   -1.02129  -0.84859  -0.73014  -0.70752  -0.66494
 Alpha  occ. eigenvalues --   -0.60459  -0.56070  -0.54158  -0.52840  -0.50927
 Alpha  occ. eigenvalues --   -0.46342  -0.45599  -0.42058  -0.40898  -0.38072
 Alpha  occ. eigenvalues --   -0.37272  -0.36743  -0.34406  -0.34205  -0.31355
 Alpha  occ. eigenvalues --   -0.30906  -0.29031  -0.27124  -0.25115
 Alpha virt. eigenvalues --    0.07155   0.10264   0.10690   0.11499   0.12699
 Alpha virt. eigenvalues --    0.14340   0.14845   0.15985   0.16838   0.17351
 Alpha virt. eigenvalues --    0.17932   0.18270   0.19471   0.21076   0.22949

 Mulliken charges:
               1
     1  O   -0.454112
     2  C    0.140611
     3  C   -0.085632
     4  C   -0.206640
     5  C   -0.199261
     6  C   -0.121787
     7  C    0.049175
     8  O   -0.266118
     9  C    0.045707
    10  H    0.283316
    11  H    0.087121
    12  H    0.069348
    13  H    0.115779
    14  H    0.091707
    15  H    0.105260
    16  H    0.092368
    17  H    0.056090
    18  H    0.098439
    19  H    0.098628
 Sum of Mulliken charges =   0.00000

 Dipole moment (field-independent basis, Debye):
    X=              0.6449    Y=              0.7862    Z=              0.9671  Tot=              1.4033
 Quadrupole moment (field-independent basis, Debye-Ang):
   XX=            -56.9219   YY=            -51.3964   ZZ=            -50.2742
   XY=             -5.0309   XZ=              2.5611   YZ=             -2.1978

  Exact polarizability:  75.284  -1.012  69.313   0.898  -1.157  72.374
 Approx polarizability: 108.955   1.878 104.449   0.600  -1.750 110.769

                      1                      2                      3
                      A                      A                      A
 Frequencies --    233.3245               239.7679               268.7243
 Red. masses --      1.8188                 2.2820                 1.4122
 Frc consts  --      0.0583                 0.0773                 0.0601
 IR Inten    --      0.8356                12.2355                92.6700

                      4                      5                      6
                      A                      A                      A
 Frequencies --    318.4163               329.4539               382.6214
 Red. masses --      3.5914                 4.0642                 3.4624
 Frc consts  --      0.2145                 0.2599                 0.2986
 IR Inten    --      2.7254                 2.5051                 4.6255

                      7                      8                      9
                      A                      A                      A
 Frequencies --    495.0421               606.2762               619.9089
 Red. masses --      6.2803                 5.4004                 4.8670
 Frc consts  --      0.9068                 1.1695                 1.1020
 IR Inten    --      3.9495                17.9710                 1.3341

                     10                     11                     12
                      A                      A                      A
 Frequencies --    759.2314               769.1743               823.5862
 Red. masses --      2.0353                 4.0143                 3.0162
 Frc consts  --      0.6912                 1.3993                 1.2054
 IR Inten    --      1.0211                 1.9777                 0.3458

                     13                     14                     15
                      A                      A                      A
 Frequencies --    832.4494               862.2456               888.0958
 Red. masses --      2.1851                 1.8130                 2.8045
 Frc consts  --      0.8922                 0.7942                 1.3033
 IR Inten    --     11.3328                29.1091                 2.1511

                     16                     17                     18
                      A                      A                      A
 Frequencies --    892.7805               917.0895               941.5629
 Red. masses --      3.0816                 3.7216                 2.3261
 Frc consts  --      1.4472                 1.8442                 1.2150
 IR Inten    --      5.5348                 7.3478                 3.1469

                     19                     20                     21
                      A                      A                      A
 Frequencies --    985.7219              1001.4755              1016.2687
 Red. masses --      3.4527                 1.4023                 2.0914
 Frc consts  --      1.9766                 0.8287                 1.2726
 IR Inten    --     10.2788                17.3401                 4.7798

                     22                     23                     24
                      A                      A                      A
 Frequencies --   1023.6182              1038.6006              1121.7190
 Red. masses --      1.9079                 1.3892                 1.4128
 Frc consts  --      1.1779                 0.8829                 1.0474
 IR Inten    --      6.1380                 0.5362                 0.7623

                     25                     26                     27
                      A                      A                      A
 Frequencies --   1126.0653              1155.1419              1169.6338
 Red. masses --      3.8145                 1.2914                 1.4845
 Frc consts  --      2.8498                 1.0152                 1.1965
 IR Inten    --     37.0443                36.3909                 3.2002

                     28                     29                     30
                      A                      A                      A
 Frequencies --   1190.8377              1229.3718              1255.4489
 Red. masses --      1.5376                 1.2832                 1.3042
 Frc consts  --      1.2847                 1.1426                 1.2111
 IR Inten    --      9.1671                 3.3679                 6.7702

                     31                     32                     33
                      A                      A                      A
 Frequencies --   1255.6687              1290.3726              1296.3864
 Red. masses --      1.3422                 1.4227                 1.3339
 Frc consts  --      1.2468                 1.3957                 1.3208
 IR Inten    --      9.4799                 0.9575                 4.2654

                     34                     35                     36
                      A                      A                      A
 Frequencies --   1302.2298              1316.5525              1339.2761
 Red. masses --      1.6559                 1.4167                 1.4825
 Frc consts  --      1.6545                 1.4468                 1.5667
 IR Inten    --     30.3360                 3.4849                 1.0248

                     37                     38                     39
                      A                      A                      A
 Frequencies --   1354.6852              1414.6055              1436.6075
 Red. masses --      1.4948                 2.3850                 1.7014
 Frc consts  --      1.6163                 2.8120                 2.0689
 IR Inten    --     12.0783                 5.7889                14.3618

                     40                     41                     42
                      A                      A                      A
 Frequencies --   1480.9071              1504.5819              3055.7667
 Red. masses --      1.0810                 1.1115                 1.0642
 Frc consts  --      1.3969                 1.4825                 5.8546
 IR Inten    --      1.1572                 6.6872                20.4591

                     43                     44                     45
                      A                      A                      A
 Frequencies --   3066.2312              3084.0245              3092.0742
 Red. masses --      1.0636                 1.0853                 1.0876
 Frc consts  --      5.8919                 6.0817                 6.1264
 IR Inten    --     47.4661                24.8788                34.2467

                     46                     47                     48
                      A                      A                      A
 Frequencies --   3106.4807              3111.0473              3125.6341
 Red. masses --      1.0993                 1.0907                 1.1012
 Frc consts  --      6.2506                 6.2198                 6.3388
 IR Inten    --      4.0538                25.3693                37.5690

                     49                     50                     51
                      A                      A                      A
 Frequencies --   3148.0557              3160.9157              3827.5942
 Red. masses --      1.0873                 1.0961                 1.0664
 Frc consts  --      6.3487                 6.4526                 9.2045
 IR Inten    --     22.8891                28.1664                25.9944

 - Thermochemistry -
 -------------------
 Temperature   298.150 Kelvin.  Pressure   1.00000 Atm.
 Atom     1 has atomic number  8 and mass  15.99491

 Molecular mass:   126.06808 amu.
 Principal axes and moments of inertia in atomic units:
                           1         2         3
     Eigenvalues --   652.007141037.723411132.97264
           X            0.99986  -0.01292   0.01046
           Y            0.01331   0.99920  -0.03761
           Z           -0.00996   0.03774   0.99924
 This molecule is an asymmetric top.
 Rotational symmetry number  1.
 Warning -- assumption of classical behavior for rotation
           may cause significant error
 Rotational temperatures (Kelvin)      0.13284     0.08347     0.07645
 Rotational constants (GHZ):           2.76798     1.73914     1.59293
 Zero-point vibrational energy     426249.5 (Joules/Mol)
                                  101.87608 (Kcal/Mol)
 Warning -- explicit consideration of   9 degrees of freedom as
           vibrations may cause significant error
 Vibrational temperatures:    335.70   344.97   386.63   458.13   474.01
          (Kelvin)            550.51   712.25   872.30   891.91  1092.36
                             1106.67  1184.96  1197.71  1240.58  1277.77
                             1284.51  1319.49  1354.70  1418.23  1440.90
                             1462.18  1472.76  1494.31  1613.90  1620.15
                             1661.99  1682.84  1713.35  1768.79  1806.31
                             1806.62  1856.56  1865.21  1873.62  1894.22
                             1926.92  1949.09  2035.30  2066.96  2130.69
                             2164.76  4396.56  4411.62  4437.22  4448.80
                             4469.53  4476.10  4497.08  4529.34  4547.85
                             5507.05

 Zero-point correction=                           0.162350 (Hartree/Particle)
 Thermal correction to Energy=                    0.169294
 Thermal correction to Enthalpy=                  0.170238
 Thermal correction to Gibbs Free Energy=         0.131517
 Sum of electronic and zero-point Energies=           -423.016191
 Sum of electronic and thermal Energies=              -423.009247
 Sum of electronic and thermal Enthalpies=            -423.008303
 Sum of electronic and thermal Free Energies=         -423.047024

                     E (Thermal)             CV                S
                      KCal/Mol        Cal/Mol-Kelvin    Cal/Mol-Kelvin
 Total                  106.233             29.162             81.496
 Electronic               0.000              0.000              0.000
 Translational            0.889              2.981             40.409
 Rotational               0.889              2.981             28.129
 Vibrational            104.456             23.201             12.958
 Vibration     1          0.654              1.790              1.853
 Vibration     2          0.657              1.780              1.805
 Vibration     3          0.673              1.731              1.604
 Vibration     4          0.705              1.638              1.318
 Vibration     5          0.712              1.617              1.263
 Vibration     6          0.752              1.507              1.029
 Vibration     7          0.851              1.261              0.671
 Vibration     8          0.965              1.019              0.439
 Vibration     9          0.980              0.990              0.417

 Optimization completed.
    -- Stationary point found.
 Normal termination of Gaussian 09 at Tue Jan 28 00:55:19 2020.
