 Gaussian 09, Revision D.01,
 Gaussian 09:  ES64L-G09RevD.01 24-Apr-2013

 -----------------------------
 # b3lyp 6-31G(2df,p) opt Freq
 -----------------------------

 -----
 titel
 -----
 Symbolic Z-matrix:
 Charge =  0 Multiplicity = 1

 SCF Done:  E(RB3LYP) =  -423.164227311     A.U. after   14 cycles
 Optimization completed.
    -- Stationary point found.
 Normal termination of Gaussian 09 at Mon Jan 27 13:03:25 2020.

 ----------------------------------------------------------------------
 #N Geom=AllCheck Guess=TCheck SCRF=Check GenChk RB3LYP/6-31G(2df,p) Fr
 eq
 ----------------------------------------------------------------------

 Structure from the checkpoint file:  "/scratch/puck/g09_95257935-ab16-48d9-90b3-7c6d37b1486f/Gau-47227.chk"
 -----
 titel
 -----
 Charge =  0 Multiplicity = 1

                         Standard orientation:
 ---------------------------------------------------------------------
 Center     Atomic      Atomic             Coordinates (Angstroms)
 Number     Number       Type             X           Y           Z
 ---------------------------------------------------------------------
      1          8           0        2.762387   -1.300113   -0.155555
      2          6           0        2.051995   -0.353953   -0.006290
      3          6           0        2.107347    1.143410   -0.332832
      4          8           0        0.771260    1.292403    0.186474
      5          6           0        0.648123   -0.105746    0.565942
      6          6           0       -0.517323   -0.836436   -0.091198
      7          6           0       -1.866440   -0.401230    0.441433
      8          6           0       -2.507597    0.867512   -0.060572
      9          6           0       -3.090803   -0.471491   -0.436589
     10          1           0        2.856198    1.712865    0.233075
     11          1           0        2.188711    1.396385   -1.397503
     12          1           0        0.607205   -0.213442    1.660189
     13          1           0       -0.470626   -0.671185   -1.174499
     14          1           0       -0.367112   -1.911665    0.073845
     15          1           0       -2.021094   -0.629586    1.493459
     16          1           0       -3.048592    1.485341    0.647298
     17          1           0       -1.973872    1.427537   -0.819718
     18          1           0       -4.029747   -0.771804    0.015084
     19          1           0       -2.962051   -0.815162   -1.457933
 ---------------------------------------------------------------------

 SCF Done:  E(RB3LYP) =  -423.164227311     A.U. after    1 cycles

 The electronic state is 1-A.
 Alpha  occ. eigenvalues --  -19.15470 -19.14861 -10.28241 -10.24456 -10.24340
 Alpha  occ. eigenvalues --  -10.19663 -10.19430 -10.18464 -10.18195  -1.07062
 Alpha  occ. eigenvalues --   -1.04413  -0.85935  -0.76726  -0.71486  -0.66534
 Alpha  occ. eigenvalues --   -0.59836  -0.57352  -0.54476  -0.49870  -0.49446
 Alpha  occ. eigenvalues --   -0.47782  -0.47132  -0.45438  -0.42348  -0.40269
 Alpha  occ. eigenvalues --   -0.39341  -0.37979  -0.36214  -0.35710  -0.33965
 Alpha  occ. eigenvalues --   -0.29626  -0.28669  -0.26437  -0.25338
 Alpha virt. eigenvalues --   -0.03143   0.06971   0.09358   0.10034   0.10685
 Alpha virt. eigenvalues --    0.13245   0.14540   0.15238   0.15514   0.16186
 Alpha virt. eigenvalues --    0.17201   0.17621   0.19779   0.22416   0.23199

 Mulliken charges:
               1
     1  O   -0.273559
     2  C    0.331961
     3  C   -0.189857
     4  O   -0.288093
     5  C    0.019687
     6  C   -0.231434
     7  C    0.025457
     8  C   -0.241333
     9  C   -0.282261
    10  H    0.132268
    11  H    0.133604
    12  H    0.104821
    13  H    0.100954
    14  H    0.118051
    15  H    0.083096
    16  H    0.111558
    17  H    0.121803
    18  H    0.112410
    19  H    0.110866
 Sum of Mulliken charges =   0.00000

 Dipole moment (field-independent basis, Debye):
    X=             -0.9165    Y=              0.6375    Z=              0.1808  Tot=              1.1309
 Quadrupole moment (field-independent basis, Debye-Ang):
   XX=            -55.8529   YY=            -57.0748   ZZ=            -50.2944
   XY=              6.8512   XZ=             -0.6449   YZ=             -1.3498

  Exact polarizability:  92.256   1.734  74.018  -2.232  -1.461  63.991
 Approx polarizability: 115.003  -4.234 114.644  -3.492  -1.786  98.284

                      1                      2                      3
                      A                      A                      A
 Frequencies --     56.8781                71.8584               112.6231
 Red. masses --      3.2189                 3.6217                 3.5120
 Frc consts  --      0.0061                 0.0110                 0.0262
 IR Inten    --      0.4285                 0.1164                 0.1134

                      4                      5                      6
                      A                      A                      A
 Frequencies --    126.2874               219.7088               326.9963
 Red. masses --      3.2626                 3.8034                 3.5462
 Frc consts  --      0.0307                 0.1082                 0.2234
 IR Inten    --      9.7939                 0.8660                 1.6777

                      7                      8                      9
                      A                      A                      A
 Frequencies --    348.6623               408.0435               511.6907
 Red. masses --      2.7609                 2.3728                 2.3616
 Frc consts  --      0.1978                 0.2328                 0.3643
 IR Inten    --      2.2127                 3.2723                 8.3667

                     10                     11                     12
                      A                      A                      A
 Frequencies --    547.2402               692.0483               768.5105
 Red. masses --      2.8815                 5.3698                 1.1269
 Frc consts  --      0.5084                 1.5152                 0.3922
 IR Inten    --      4.8303                 0.0622                 0.1916

                     13                     14                     15
                      A                      A                      A
 Frequencies --    795.1067               817.5381               837.8655
 Red. masses --      1.5939                 2.7474                 1.5605
 Frc consts  --      0.5937                 1.0819                 0.6455
 IR Inten    --      2.0100                 1.8470                12.3030

                     16                     17                     18
                      A                      A                      A
 Frequencies --    862.6422               903.8654               955.5559
 Red. masses --      2.1453                 2.8645                 2.4442
 Frc consts  --      0.9406                 1.3788                 1.3149
 IR Inten    --     12.1938                 3.3186                16.2768

                     19                     20                     21
                      A                      A                      A
 Frequencies --    993.5163              1010.5807              1023.2580
 Red. masses --      2.2417                 7.4796                 2.2522
 Frc consts  --      1.3037                 4.5006                 1.3894
 IR Inten    --     22.7103                64.4523                 1.2976

                     22                     23                     24
                      A                      A                      A
 Frequencies --   1056.6179              1075.0514              1087.4188
 Red. masses --      1.5034                 1.3957                 3.4498
 Frc consts  --      0.9889                 0.9504                 2.4035
 IR Inten    --     14.3101                 0.0912                82.8063

                     25                     26                     27
                      A                      A                      A
 Frequencies --   1093.7486              1134.5959              1137.2613
 Red. masses --      2.3396                 1.1084                 1.1819
 Frc consts  --      1.6490                 0.8407                 0.9006
 IR Inten    --     15.4486                 0.8710                 3.1098

                     28                     29                     30
                      A                      A                      A
 Frequencies --   1157.1978              1195.9371              1227.6629
 Red. masses --      1.8980                 1.3977                 1.6530
 Frc consts  --      1.4975                 1.1778                 1.4678
 IR Inten    --      3.3937                 0.4133                 1.0999

                     31                     32                     33
                      A                      A                      A
 Frequencies --   1236.6556              1262.7733              1287.3155
 Red. masses --      1.5788                 1.4811                 1.3858
 Frc consts  --      1.4226                 1.3915                 1.3531
 IR Inten    --      4.5049                 1.6366                 6.8567

                     34                     35                     36
                      A                      A                      A
 Frequencies --   1329.0465              1361.8580              1419.6898
 Red. masses --      1.3661                 1.4044                 1.5726
 Frc consts  --      1.4218                 1.5347                 1.8674
 IR Inten    --      2.5712                 9.1183                 0.3106

                     37                     38                     39
                      A                      A                      A
 Frequencies --   1465.8124              1473.6247              1482.0474
 Red. masses --      1.1023                 1.0934                 1.1023
 Frc consts  --      1.3955                 1.3990                 1.4265
 IR Inten    --      4.6568                 0.7376                 3.6683

                     40                     41                     42
                      A                      A                      A
 Frequencies --   1509.5689              1921.4044              2999.1451
 Red. masses --      1.3711                12.9624                 1.0796
 Frc consts  --      1.8409                28.1951                 5.7216
 IR Inten    --      2.2567               266.9603                27.2240

                     43                     44                     45
                      A                      A                      A
 Frequencies --   3016.6734              3021.8304              3061.9868
 Red. masses --      1.0577                 1.0595                 1.1074
 Frc consts  --      5.6714                 5.7003                 6.1176
 IR Inten    --     27.8494                16.8305                14.6117

                     46                     47                     48
                      A                      A                      A
 Frequencies --   3065.5305              3130.4504              3132.6909
 Red. masses --      1.1018                 1.0597                 1.0785
 Frc consts  --      6.1003                 6.1183                 6.2362
 IR Inten    --     20.5717                22.4847                17.7842

                     49                     50                     51
                      A                      A                      A
 Frequencies --   3142.8135              3210.7367              3229.0962
 Red. masses --      1.0595                 1.1173                 1.1154
 Frc consts  --      6.1658                 6.7864                 6.8526
 IR Inten    --      7.4574                 3.1171                17.0588

 - Thermochemistry -
 -------------------
 Temperature   298.150 Kelvin.  Pressure   1.00000 Atm.
 Atom     1 has atomic number  8 and mass  15.99491

 Molecular mass:   126.06808 amu.
 Principal axes and moments of inertia in atomic units:
                           1         2         3
     Eigenvalues --   466.239341978.300452283.47973
           X            0.99982   0.01922  -0.00008
           Y           -0.01922   0.99971  -0.01432
           Z           -0.00019   0.01432   0.99990
 This molecule is an asymmetric top.
 Rotational symmetry number  1.
 Warning -- assumption of classical behavior for rotation
           may cause significant error
 Rotational temperatures (Kelvin)      0.18577     0.04378     0.03793
 Rotational constants (GHZ):           3.87085     0.91227     0.79035
 Zero-point vibrational energy     414606.0 (Joules/Mol)
                                   99.09322 (Kcal/Mol)
 Warning -- explicit consideration of  10 degrees of freedom as
           vibrations may cause significant error
 Vibrational temperatures:     81.83   103.39   162.04   181.70   316.11
          (Kelvin)            470.47   501.65   587.08   736.21   787.36
                              995.70  1105.71  1143.98  1176.25  1205.50
                             1241.15  1300.46  1374.83  1429.45  1454.00
                             1472.24  1520.24  1546.76  1564.55  1573.66
                             1632.43  1636.26  1664.95  1720.68  1766.33
                             1779.27  1816.85  1852.16  1912.20  1959.41
                             2042.61  2108.97  2120.21  2132.33  2171.93
                             2764.47  4315.10  4340.31  4347.73  4405.51
                             4410.61  4504.01  4507.24  4521.80  4619.53
                             4645.94

 Zero-point correction=                           0.157915 (Hartree/Particle)
 Thermal correction to Energy=                    0.166726
 Thermal correction to Enthalpy=                  0.167670
 Thermal correction to Gibbs Free Energy=         0.123250
 Sum of electronic and zero-point Energies=           -423.006312
 Sum of electronic and thermal Energies=              -422.997502
 Sum of electronic and thermal Enthalpies=            -422.996557
 Sum of electronic and thermal Free Energies=         -423.040977

                     E (Thermal)             CV                S
                      KCal/Mol        Cal/Mol-Kelvin    Cal/Mol-Kelvin
 Total                  104.622             32.124             93.489
 Electronic               0.000              0.000              0.000
 Translational            0.889              2.981             40.409
 Rotational               0.889              2.981             29.134
 Vibrational            102.845             26.162             23.947
 Vibration     1          0.596              1.975              4.563
 Vibration     2          0.598              1.967              4.102
 Vibration     3          0.607              1.939              3.223
 Vibration     4          0.611              1.927              3.002
 Vibration     5          0.647              1.811              1.961
 Vibration     6          0.711              1.622              1.275
 Vibration     7          0.726              1.578              1.172
 Vibration     8          0.773              1.453              0.934
 Vibration     9          0.867              1.224              0.630
 Vibration    10          0.902              1.146              0.550

 Optimization completed.
    -- Stationary point found.
 Normal termination of Gaussian 09 at Mon Jan 27 13:40:55 2020.
