 Gaussian 09, Revision D.01,
 Gaussian 09:  ES64L-G09RevD.01 24-Apr-2013

 -----------------------------
 # b3lyp 6-31G(2df,p) opt Freq
 -----------------------------

 -----
 titel
 -----
 Symbolic Z-matrix:
 Charge =  0 Multiplicity = 1

 SCF Done:  E(RB3LYP) =  -423.123005646     A.U. after   13 cycles
 Optimization completed.
    -- Stationary point found.
 Normal termination of Gaussian 09 at Tue Jan 28 13:23:37 2020.

 ----------------------------------------------------------------------
 #N Geom=AllCheck Guess=TCheck SCRF=Check GenChk RB3LYP/6-31G(2df,p) Fr
 eq
 ----------------------------------------------------------------------

 Structure from the checkpoint file:  "/scratch/puck/g09_ae7094f6-7996-40c2-b965-599fec83814e/Gau-159546.chk"
 -----
 titel
 -----
 Charge =  0 Multiplicity = 1

                         Standard orientation:
 ---------------------------------------------------------------------
 Center     Atomic      Atomic             Coordinates (Angstroms)
 Number     Number       Type             X           Y           Z
 ---------------------------------------------------------------------
      1          6           0        3.067040    0.394310    0.015004
      2          8           0        1.786161    0.511025   -0.567106
      3          6           0        0.750418    0.127622    0.290691
      4          6           0        0.470385   -1.389379    0.494625
      5          6           0       -1.040973   -1.079164    0.335643
      6          8           0       -1.878407   -1.975460   -0.335404
      7          6           0       -0.658371    0.282477   -0.345517
      8          6           0       -1.444472    1.465288   -0.079675
      9          6           0       -2.102858    2.437445    0.181408
     10          1           0        3.303367   -0.645971    0.284220
     11          1           0        3.791619    0.739823   -0.725800
     12          1           0        3.158257    1.015092    0.919503
     13          1           0        0.814980    0.661581    1.249479
     14          1           0        0.845867   -1.951460   -0.367865
     15          1           0        0.799784   -1.872694    1.415659
     16          1           0       -1.515198   -0.892368    1.301953
     17          1           0       -1.478077   -2.184810   -1.186091
     18          1           0       -0.544797    0.116675   -1.424233
     19          1           0       -2.684852    3.298014    0.400176
 ---------------------------------------------------------------------

 SCF Done:  E(RB3LYP) =  -423.123005646     A.U. after    1 cycles

 The electronic state is 1-A.
 Alpha  occ. eigenvalues --  -19.14767 -19.14460 -10.24260 -10.24257 -10.22944
 Alpha  occ. eigenvalues --  -10.20745 -10.18624 -10.17708 -10.16833  -1.04300
 Alpha  occ. eigenvalues --   -1.02906  -0.84948  -0.74832  -0.70484  -0.67657
 Alpha  occ. eigenvalues --   -0.63395  -0.58436  -0.54449  -0.51885  -0.49650
 Alpha  occ. eigenvalues --   -0.46084  -0.45832  -0.45526  -0.41933  -0.40776
 Alpha  occ. eigenvalues --   -0.40059  -0.36764  -0.36349  -0.32365  -0.31950
 Alpha  occ. eigenvalues --   -0.28958  -0.26344  -0.25207  -0.24660
 Alpha virt. eigenvalues --    0.04562   0.05423   0.08066   0.08261   0.10700
 Alpha virt. eigenvalues --    0.11780   0.13215   0.13753   0.14666   0.15719
 Alpha virt. eigenvalues --    0.16855   0.18360   0.18822   0.20330   0.21677

 Mulliken charges:
               1
     1  C   -0.241855
     2  O   -0.240373
     3  C    0.146208
     4  C   -0.326623
     5  C    0.151451
     6  O   -0.425122
     7  C   -0.244867
     8  C    0.292771
     9  C   -0.438750
    10  H    0.109311
    11  H    0.130977
    12  H    0.109693
    13  H    0.079902
    14  H    0.102471
    15  H    0.108022
    16  H    0.107088
    17  H    0.280310
    18  H    0.105525
    19  H    0.193863
 Sum of Mulliken charges =   0.00000

 Dipole moment (field-independent basis, Debye):
    X=              1.9228    Y=             -0.5257    Z=              0.3509  Tot=              2.0240
 Quadrupole moment (field-independent basis, Debye-Ang):
   XX=            -53.3555   YY=            -52.7419   ZZ=            -50.9600
   XY=             -4.4733   XZ=              1.4813   YZ=              3.6477

  Exact polarizability:  88.263 -12.180  87.956  -1.542   3.807  61.817
 Approx polarizability: 114.470 -21.369 128.597  -5.388   8.985  97.080

                      1                      2                      3
                      A                      A                      A
 Frequencies --     71.6723                89.9594               125.9725
 Red. masses --      3.2322                 2.8340                 3.8192
 Frc consts  --      0.0098                 0.0135                 0.0357
 IR Inten    --      0.3656                 3.5154                 0.2135

                      4                      5                      6
                      A                      A                      A
 Frequencies --    151.7820               198.3747               252.7055
 Red. masses --      3.4582                 1.2212                 3.1972
 Frc consts  --      0.0469                 0.0283                 0.1203
 IR Inten    --      1.7382                 0.2914                 1.6993

                      7                      8                      9
                      A                      A                      A
 Frequencies --    297.0343               353.7416               389.5012
 Red. masses --      1.3678                 2.5312                 5.1153
 Frc consts  --      0.0711                 0.1866                 0.4572
 IR Inten    --     47.9642                49.7804                 7.3542

                     10                     11                     12
                      A                      A                      A
 Frequencies --    420.6673               436.0933               528.0327
 Red. masses --      3.3439                 2.9877                 4.0064
 Frc consts  --      0.3486                 0.3348                 0.6581
 IR Inten    --      7.1340                 3.2904                 9.2030

                     13                     14                     15
                      A                      A                      A
 Frequencies --    546.5740               587.6856               619.4185
 Red. masses --      3.2235                 3.2603                 1.2199
 Frc consts  --      0.5674                 0.6634                 0.2758
 IR Inten    --      0.3987                 0.4323                44.6358

                     16                     17                     18
                      A                      A                      A
 Frequencies --    628.9359               828.2487               838.2282
 Red. masses --      1.2232                 2.0390                 2.3406
 Frc consts  --      0.2851                 0.8241                 0.9690
 IR Inten    --     43.9384                 0.2311                 4.2676

                     19                     20                     21
                      A                      A                      A
 Frequencies --    943.2882              1004.9326              1033.8054
 Red. masses --      5.5128                 2.9394                 3.9010
 Frc consts  --      2.8901                 1.7490                 2.4564
 IR Inten    --      4.2506                13.1071                39.5416

                     22                     23                     24
                      A                      A                      A
 Frequencies --   1051.9752              1083.5956              1095.2548
 Red. masses --      2.0800                 1.9300                 1.9496
 Frc consts  --      1.3562                 1.3352                 1.3780
 IR Inten    --     27.9263                 3.8724                 0.9487

                     25                     26                     27
                      A                      A                      A
 Frequencies --   1123.3149              1161.5571              1179.5336
 Red. masses --      3.6385                 1.3969                 2.5402
 Frc consts  --      2.7050                 1.1105                 2.0823
 IR Inten    --    198.7954                66.0898                47.3731

                     28                     29                     30
                      A                      A                      A
 Frequencies --   1184.5083              1214.9598              1235.9139
 Red. masses --      1.3048                 1.3389                 1.6769
 Frc consts  --      1.0786                 1.1644                 1.5091
 IR Inten    --      1.5360                19.6930                71.4059

                     31                     32                     33
                      A                      A                      A
 Frequencies --   1253.2203              1271.6428              1321.2126
 Red. masses --      1.3102                 1.5523                 1.5277
 Frc consts  --      1.2124                 1.4790                 1.5712
 IR Inten    --      9.9955                15.8289                 0.9371

                     34                     35                     36
                      A                      A                      A
 Frequencies --   1357.4808              1394.7833              1442.2976
 Red. masses --      1.4271                 1.3381                 1.2229
 Frc consts  --      1.5494                 1.5337                 1.4989
 IR Inten    --      9.1480                65.1301                41.8723

                     37                     38                     39
                      A                      A                      A
 Frequencies --   1475.2916              1485.8892              1489.8543
 Red. masses --      1.1230                 1.0945                 1.1304
 Frc consts  --      1.4400                 1.4238                 1.4783
 IR Inten    --      0.5394                 4.2225                 1.1767

                     40                     41                     42
                      A                      A                      A
 Frequencies --   1509.0409              2234.4940              2978.8682
 Red. masses --      1.0685                 5.9857                 1.0372
 Frc consts  --      1.4336                17.6085                 5.4226
 IR Inten    --      6.7212                 5.6633                52.7080

                     43                     44                     45
                      A                      A                      A
 Frequencies --   3003.8565              3027.9784              3035.6320
 Red. masses --      1.0832                 1.1029                 1.0817
 Frc consts  --      5.7585                 5.9579                 5.8730
 IR Inten    --     29.5755                46.7630                 8.2154

                     46                     47                     48
                      A                      A                      A
 Frequencies --   3050.9592              3091.6140              3119.0952
 Red. masses --      1.0633                 1.0865                 1.0968
 Frc consts  --      5.8312                 6.1186                 6.2866
 IR Inten    --     24.6488                15.6871                25.5003

                     49                     50                     51
                      A                      A                      A
 Frequencies --   3125.8460              3504.4086              3806.9630
 Red. masses --      1.1039                 1.1609                 1.0658
 Frc consts  --      6.3552                 8.3997                 9.1011
 IR Inten    --     30.9108                74.5466                17.8006

 - Thermochemistry -
 -------------------
 Temperature   298.150 Kelvin.  Pressure   1.00000 Atm.
 Atom     1 has atomic number  6 and mass  12.00000

 Molecular mass:   126.06808 amu.
 Principal axes and moments of inertia in atomic units:
                           1         2         3
     Eigenvalues --   909.795931428.769572162.72769
           X            0.99974  -0.02153   0.00702
           Y            0.02148   0.99974   0.00793
           Z           -0.00718  -0.00778   0.99994
 This molecule is an asymmetric top.
 Rotational symmetry number  1.
 Warning -- assumption of classical behavior for rotation
           may cause significant error
 Rotational temperatures (Kelvin)      0.09520     0.06062     0.04005
 Rotational constants (GHZ):           1.98368     1.26314     0.83447
 Zero-point vibrational energy     410664.2 (Joules/Mol)
                                   98.15110 (Kcal/Mol)
 Warning -- explicit consideration of  15 degrees of freedom as
           vibrations may cause significant error
 Vibrational temperatures:    103.12   129.43   181.25   218.38   285.42
          (Kelvin)            363.59   427.37   508.95   560.40   605.25
                              627.44   759.72   786.40   845.55   891.20
                              904.90  1191.66  1206.02  1357.18  1445.87
                             1487.41  1513.56  1559.05  1575.83  1616.20
                             1671.22  1697.08  1704.24  1748.05  1778.20
                             1803.10  1829.61  1900.93  1953.11  2006.78
                             2075.14  2122.61  2137.86  2143.57  2171.17
                             3214.93  4285.92  4321.87  4356.58  4367.59
                             4389.64  4448.14  4487.68  4497.39  5042.06
                             5477.36

 Zero-point correction=                           0.156414 (Hartree/Particle)
 Thermal correction to Energy=                    0.166210
 Thermal correction to Enthalpy=                  0.167154
 Thermal correction to Gibbs Free Energy=         0.121454
 Sum of electronic and zero-point Energies=           -422.966592
 Sum of electronic and thermal Energies=              -422.956796
 Sum of electronic and thermal Enthalpies=            -422.955851
 Sum of electronic and thermal Free Energies=         -423.001552

                     E (Thermal)             CV                S
                      KCal/Mol        Cal/Mol-Kelvin    Cal/Mol-Kelvin
 Total                  104.298             35.894             96.184
 Electronic               0.000              0.000              0.000
 Translational            0.889              2.981             40.409
 Rotational               0.889              2.981             29.421
 Vibrational            102.521             29.933             26.355
 Vibration     1          0.598              1.968              4.107
 Vibration     2          0.602              1.956              3.661
 Vibration     3          0.611              1.927              3.007
 Vibration     4          0.619              1.901              2.650
 Vibration     5          0.637              1.842              2.148
 Vibration     6          0.664              1.758              1.712
 Vibration     7          0.691              1.679              1.434
 Vibration     8          0.730              1.568              1.149
 Vibration     9          0.757              1.493              1.002
 Vibration    10          0.783              1.425              0.890
 Vibration    11          0.797              1.392              0.839
 Vibration    12          0.883              1.188              0.592
 Vibration    13          0.902              1.147              0.551
 Vibration    14          0.945              1.058              0.471
 Vibration    15          0.979              0.991              0.417

 Normal termination of Gaussian 09 at Tue Jan 28 14:02:53 2020.
