 Gaussian 09, Revision D.01,
 Gaussian 09:  ES64L-G09RevD.01 24-Apr-2013

 ----------------------------------------------------
 # b3lyp 6-31G(2df,p) opt(MaxCycles=100,CalcAll) Freq
 ----------------------------------------------------

 -----
 titel
 -----
 Symbolic Z-matrix:
 Charge =  0 Multiplicity = 1

 SCF Done:  E(RB3LYP) =  -423.157329266     A.U. after   15 cycles
 Optimization completed.
    -- Stationary point found.
 Normal termination of Gaussian 09 at Fri Jan 31 17:14:55 2020.

 ----------------------------------------------------------------------
 #N Geom=AllCheck Guess=TCheck SCRF=Check GenChk RB3LYP/6-31G(2df,p) Fr
 eq
 ----------------------------------------------------------------------

 Structure from the checkpoint file:  "/scratch/puck/g09_e2c3682d-e2fd-4804-9e72-8e938d123d50/Gau-177073.chk"
 -----
 titel
 -----
 Charge =  0 Multiplicity = 1

                         Standard orientation:
 ---------------------------------------------------------------------
 Center     Atomic      Atomic             Coordinates (Angstroms)
 Number     Number       Type             X           Y           Z
 ---------------------------------------------------------------------
      1          6           0       -1.808581   -0.984446   -0.797387
      2          6           0       -0.868960   -0.196640    0.141915
      3          6           0       -1.392483   -0.294789    1.593247
      4          6           0       -0.811696    1.208024   -0.274447
      5          6           0       -0.756007    2.364598   -0.597735
      6          6           0        0.567402   -0.822208    0.031832
      7          8           0        0.975337   -0.952402   -1.297415
      8          6           0        1.603102   -0.018897    0.802578
      9          8           0        2.590364    0.411837    0.257757
     10          1           0       -1.871870   -2.029401   -0.475049
     11          1           0       -2.812520   -0.552287   -0.771546
     12          1           0       -1.435180   -0.957564   -1.820978
     13          1           0       -0.808255    0.311226    2.289767
     14          1           0       -2.425535    0.059670    1.637528
     15          1           0       -1.375635   -1.335464    1.933978
     16          1           0       -0.705749    3.384154   -0.891042
     17          1           0        0.510097   -1.817258    0.509589
     18          1           0        1.780003   -0.414717   -1.376723
     19          1           0        1.422375    0.142306    1.881723
 ---------------------------------------------------------------------

 SCF Done:  E(RB3LYP) =  -423.157329266     A.U. after    1 cycles

 The electronic state is 1-A.
 Alpha  occ. eigenvalues --  -19.16258 -19.13971 -10.28527 -10.25129 -10.23197
 Alpha  occ. eigenvalues --  -10.19327 -10.18291 -10.18125 -10.17620  -1.07477
 Alpha  occ. eigenvalues --   -1.02350  -0.83925  -0.73694  -0.71920  -0.69803
 Alpha  occ. eigenvalues --   -0.62084  -0.59267  -0.52912  -0.52177  -0.49717
 Alpha  occ. eigenvalues --   -0.47612  -0.46334  -0.43088  -0.42190  -0.39619
 Alpha  occ. eigenvalues --   -0.39461  -0.37815  -0.36932  -0.36584  -0.34751
 Alpha  occ. eigenvalues --   -0.28818  -0.27633  -0.26898  -0.26211
 Alpha virt. eigenvalues --   -0.03971   0.04797   0.05434   0.08246   0.10257
 Alpha virt. eigenvalues --    0.11174   0.12162   0.13246   0.15614   0.16585
 Alpha virt. eigenvalues --    0.18256   0.18589   0.19932   0.20531   0.21978

 Mulliken charges:
               1
     1  C   -0.405789
     2  C    0.014004
     3  C   -0.422953
     4  C    0.360842
     5  C   -0.494664
     6  C    0.047546
     7  O   -0.434275
     8  C    0.140205
     9  O   -0.263068
    10  H    0.111162
    11  H    0.120965
    12  H    0.152352
    13  H    0.125341
    14  H    0.134345
    15  H    0.117982
    16  H    0.200512
    17  H    0.093343
    18  H    0.297775
    19  H    0.104376
 Sum of Mulliken charges =   0.00000

 Dipole moment (field-independent basis, Debye):
    X=             -1.4782    Y=             -0.3597    Z=              1.7815  Tot=              2.3427
 Quadrupole moment (field-independent basis, Debye-Ang):
   XX=            -57.6670   YY=            -50.5585   ZZ=            -52.7754
   XY=             -0.6956   XZ=              0.1894   YZ=             -3.4677

  Exact polarizability:  76.847   4.298  84.740  -1.540  -5.597  70.551
 Approx polarizability: 108.734   9.762 135.445  -6.105 -12.800 103.769

                      1                      2                      3
                      A                      A                      A
 Frequencies --     65.9833                92.5834               155.1448
 Red. masses --      4.3282                 5.1289                 4.1201
 Frc consts  --      0.0111                 0.0259                 0.0584
 IR Inten    --      1.0952                 0.7113                 0.2311

                      4                      5                      6
                      A                      A                      A
 Frequencies --    175.8221               220.0093               238.4985
 Red. masses --      2.5977                 1.4503                 1.7443
 Frc consts  --      0.0473                 0.0414                 0.0585
 IR Inten    --      0.3124                 1.4713                 2.3064

                      7                      8                      9
                      A                      A                      A
 Frequencies --    252.5937               328.1523               335.8021
 Red. masses --      1.1425                 2.6752                 3.3625
 Frc consts  --      0.0429                 0.1697                 0.2234
 IR Inten    --      0.2753                 1.8672                 4.9511

                     10                     11                     12
                      A                      A                      A
 Frequencies --    341.7224               383.7213               406.8631
 Red. masses --      4.1782                 3.0185                 3.5871
 Frc consts  --      0.2875                 0.2619                 0.3499
 IR Inten    --     15.2449                 2.1307                13.4218

                     13                     14                     15
                      A                      A                      A
 Frequencies --    471.7055               557.2907               605.6419
 Red. masses --      1.2200                 4.7122                 4.2402
 Frc consts  --      0.1599                 0.8623                 0.9164
 IR Inten    --     61.0714                 3.1933                 4.3038

                     16                     17                     18
                      A                      A                      A
 Frequencies --    634.7393               644.9535               690.3321
 Red. masses --      1.2264                 1.2238                 3.6301
 Frc consts  --      0.2911                 0.2999                 1.0192
 IR Inten    --     40.7168                40.5293                 3.2466

                     19                     20                     21
                      A                      A                      A
 Frequencies --    774.5467               838.3026               930.9072
 Red. masses --      3.5656                 2.6976                 2.3914
 Frc consts  --      1.2603                 1.1169                 1.2210
 IR Inten    --      7.8990                25.9936                20.7565

                     22                     23                     24
                      A                      A                      A
 Frequencies --    935.5394               950.7609              1017.4407
 Red. masses --      1.9940                 1.5070                 1.6108
 Frc consts  --      1.0282                 0.8026                 0.9824
 IR Inten    --      0.9177                 0.1227                 5.2884

                     25                     26                     27
                      A                      A                      A
 Frequencies --   1034.0868              1141.7728              1181.9514
 Red. masses --      1.4824                 3.9163                 2.5720
 Frc consts  --      0.9340                 3.0080                 2.1170
 IR Inten    --      8.0790                64.2893                15.4072

                     28                     29                     30
                      A                      A                      A
 Frequencies --   1206.4634              1215.1564              1286.8061
 Red. masses --      2.2518                 2.2369                 1.7242
 Frc consts  --      1.9311                 1.9461                 1.6822
 IR Inten    --      7.5516                 6.2500                23.1539

                     31                     32                     33
                      A                      A                      A
 Frequencies --   1340.8758              1390.4520              1402.4967
 Red. masses --      1.3780                 1.1979                 1.1929
 Frc consts  --      1.4597                 1.3645                 1.3825
 IR Inten    --     10.2450                20.3491                25.4984

                     34                     35                     36
                      A                      A                      A
 Frequencies --   1417.5345              1444.9502              1480.2134
 Red. masses --      1.2051                 1.3164                 1.0489
 Frc consts  --      1.4268                 1.6194                 1.3540
 IR Inten    --      2.5247                61.7622                 3.1048

                     37                     38                     39
                      A                      A                      A
 Frequencies --   1485.9893              1498.9171              1511.0898
 Red. masses --      1.0463                 1.0514                 1.0562
 Frc consts  --      1.3612                 1.3918                 1.4210
 IR Inten    --      1.5597                 2.4146                 8.1535

                     40                     41                     42
                      A                      A                      A
 Frequencies --   1811.1867              2231.5329              2942.8475
 Red. masses --     10.2682                 5.9221                 1.0804
 Frc consts  --     19.8459                17.3752                 5.5130
 IR Inten    --    129.7989                 0.4705                18.5881

                     43                     44                     45
                      A                      A                      A
 Frequencies --   2965.7814              3038.7153              3043.1190
 Red. masses --      1.0863                 1.0370                 1.0377
 Frc consts  --      5.6297                 5.6418                 5.6616
 IR Inten    --     73.0711                14.3747                30.7390

                     46                     47                     48
                      A                      A                      A
 Frequencies --   3110.3929              3114.8431              3124.4438
 Red. masses --      1.1004                 1.0999                 1.1019
 Frc consts  --      6.2725                 6.2877                 6.3375
 IR Inten    --      3.6834                34.6531                21.1423

                     49                     50                     51
                      A                      A                      A
 Frequencies --   3155.8537              3500.7062              3679.3352
 Red. masses --      1.0998                 1.1619                 1.0646
 Frc consts  --      6.4537                 8.3896                 8.4917
 IR Inten    --      6.5707                65.8130                80.1996

 - Thermochemistry -
 -------------------
 Temperature   298.150 Kelvin.  Pressure   1.00000 Atm.
 Atom     1 has atomic number  6 and mass  12.00000

 Molecular mass:   126.06808 amu.
 Principal axes and moments of inertia in atomic units:
                           1         2         3
     Eigenvalues --   881.413671331.752771487.85322
           X            0.99932   0.03486  -0.01207
           Y           -0.03534   0.99849  -0.04216
           Z            0.01058   0.04255   0.99904
 This molecule is an asymmetric top.
 Rotational symmetry number  1.
 Warning -- assumption of classical behavior for rotation
           may cause significant error
 Rotational temperatures (Kelvin)      0.09827     0.06504     0.05821
 Rotational constants (GHZ):           2.04755     1.35516     1.21298
 Zero-point vibrational energy     405573.4 (Joules/Mol)
                                   96.93436 (Kcal/Mol)
 Warning -- explicit consideration of  15 degrees of freedom as
           vibrations may cause significant error
 Vibrational temperatures:     94.94   133.21   223.22   252.97   316.54
          (Kelvin)            343.15   363.43   472.14   483.14   491.66
                              552.09   585.38   678.68   801.82   871.38
                              913.25   927.94   993.23  1114.40  1206.13
                             1339.37  1346.03  1367.93  1463.87  1487.82
                             1642.75  1700.56  1735.83  1748.34  1851.42
                             1929.22  2000.55  2017.88  2039.51  2078.96
                             2129.69  2138.00  2156.60  2174.12  2605.89
                             3210.67  4234.10  4267.09  4372.03  4378.36
                             4475.16  4481.56  4495.37  4540.56  5036.73
                             5293.74

 Zero-point correction=                           0.154475 (Hartree/Particle)
 Thermal correction to Energy=                    0.164856
 Thermal correction to Enthalpy=                  0.165800
 Thermal correction to Gibbs Free Energy=         0.119504
 Sum of electronic and zero-point Energies=           -423.002855
 Sum of electronic and thermal Energies=              -422.992473
 Sum of electronic and thermal Enthalpies=            -422.991529
 Sum of electronic and thermal Free Energies=         -423.037825

                     E (Thermal)             CV                S
                      KCal/Mol        Cal/Mol-Kelvin    Cal/Mol-Kelvin
 Total                  103.449             38.198             97.439
 Electronic               0.000              0.000              0.000
 Translational            0.889              2.981             40.409
 Rotational               0.889              2.981             28.948
 Vibrational            101.671             32.236             28.083
 Vibration     1          0.597              1.971              4.270
 Vibration     2          0.602              1.954              3.605
 Vibration     3          0.620              1.897              2.608
 Vibration     4          0.628              1.872              2.372
 Vibration     5          0.647              1.811              1.959
 Vibration     6          0.656              1.782              1.814
 Vibration     7          0.664              1.758              1.712
 Vibration     8          0.711              1.619              1.269
 Vibration     9          0.717              1.604              1.232
 Vibration    10          0.721              1.592              1.204
 Vibration    11          0.753              1.505              1.024
 Vibration    12          0.772              1.455              0.938
 Vibration    13          0.829              1.313              0.733
 Vibration    14          0.913              1.124              0.529
 Vibration    15          0.964              1.020              0.440

 Optimization completed.
    -- Stationary point found.
 Normal termination of Gaussian 09 at Fri Jan 31 17:51:35 2020.
