 Gaussian 09, Revision D.01,
 Gaussian 09:  ES64L-G09RevD.01 24-Apr-2013

 -----------------------------
 # b3lyp 6-31G(2df,p) opt Freq
 -----------------------------

 -----
 titel
 -----
 Symbolic Z-matrix:
 Charge =  0 Multiplicity = 1

 SCF Done:  E(RB3LYP) =  -423.157270823     A.U. after   13 cycles
 SCF Done:  E(RB3LYP) =  -423.157271788     A.U. after    6 cycles
 Optimization completed.
    -- Stationary point found.
 Normal termination of Gaussian 09 at Mon Jan 27 18:47:07 2020.

 ----------------------------------------------------------------------
 #N Geom=AllCheck Guess=TCheck SCRF=Check GenChk RB3LYP/6-31G(2df,p) Fr
 eq
 ----------------------------------------------------------------------

 Structure from the checkpoint file:  "/scratch/puck/g09_a4487331-01fb-4668-a7fd-23fcdbd74cd2/Gau-42151.chk"
 -----
 titel
 -----
 Charge =  0 Multiplicity = 1

                         Standard orientation:
 ---------------------------------------------------------------------
 Center     Atomic      Atomic             Coordinates (Angstroms)
 Number     Number       Type             X           Y           Z
 ---------------------------------------------------------------------
      1          8           0        2.285344   -0.120231   -0.501051
      2          6           0        0.958359    0.145960   -0.173151
      3          6           0        0.330672    1.542878   -0.301352
      4          6           0       -0.749691    1.012037    0.685514
      5          8           0       -1.829297    0.395678    0.000964
      6          6           0       -1.346894   -0.455148   -1.042680
      7          6           0        0.004762   -1.027794   -0.625369
      8          6           0       -0.102792   -1.489233    0.858156
      9          6           0        0.287727   -0.054343    1.231748
     10          1           0        2.839857    0.548236   -0.083815
     11          1           0        0.967150    2.290294    0.187055
     12          1           0        0.003518    1.927595   -1.271696
     13          1           0       -1.184855    1.707223    1.402886
     14          1           0       -2.093606   -1.245014   -1.176656
     15          1           0       -1.267995    0.100118   -1.989052
     16          1           0        0.420868   -1.711863   -1.366693
     17          1           0       -1.073543   -1.866755    1.190589
     18          1           0        0.684049   -2.196973    1.129009
     19          1           0        0.763320    0.197424    2.181878
 ---------------------------------------------------------------------

 SCF Done:  E(RB3LYP) =  -423.157271788     A.U. after    1 cycles

 The electronic state is 1-A.
 Alpha  occ. eigenvalues --  -19.14481 -19.13589 -10.23635 -10.23390 -10.22435
 Alpha  occ. eigenvalues --  -10.18753 -10.17970 -10.17962 -10.17759  -1.03796
 Alpha  occ. eigenvalues --   -1.02575  -0.86030  -0.77362  -0.70921  -0.62430
 Alpha  occ. eigenvalues --   -0.61399  -0.60500  -0.53995  -0.49623  -0.48219
 Alpha  occ. eigenvalues --   -0.46364  -0.45517  -0.44088  -0.40315  -0.39917
 Alpha  occ. eigenvalues --   -0.38501  -0.36823  -0.35588  -0.33924  -0.31775
 Alpha  occ. eigenvalues --   -0.29665  -0.27799  -0.24767  -0.23897
 Alpha virt. eigenvalues --    0.07453   0.08857   0.10966   0.12507   0.12915
 Alpha virt. eigenvalues --    0.14012   0.14427   0.15167   0.16082   0.18176
 Alpha virt. eigenvalues --    0.18925   0.19453   0.20448   0.20735   0.21581

 Mulliken charges:
               1
     1  O   -0.491994
     2  C    0.428473
     3  C   -0.330687
     4  C    0.104576
     5  O   -0.267065
     6  C   -0.092530
     7  C   -0.089004
     8  C   -0.236959
     9  C   -0.120265
    10  H    0.276723
    11  H    0.087895
    12  H    0.102723
    13  H    0.083215
    14  H    0.107089
    15  H    0.094707
    16  H    0.078809
    17  H    0.100691
    18  H    0.105333
    19  H    0.058273
 Sum of Mulliken charges =   0.00000

 Dipole moment (field-independent basis, Debye):
    X=              1.1364    Y=              0.7140    Z=              0.4757  Tot=              1.4239
 Quadrupole moment (field-independent basis, Debye-Ang):
   XX=            -55.6595   YY=            -51.0158   ZZ=            -52.0148
   XY=              4.5489   XZ=              3.3289   YZ=              1.2547

  Exact polarizability:  73.938   3.209  75.927   2.456   1.038  71.127
 Approx polarizability: 109.696   2.908 108.277   0.777   3.091 107.464

                      1                      2                      3
                      A                      A                      A
 Frequencies --    229.0322               289.5290               309.0443
 Red. masses --      2.4367                 2.9711                 2.0687
 Frc consts  --      0.0753                 0.1467                 0.1164
 IR Inten    --      4.6994                 9.3593                15.2548

                      4                      5                      6
                      A                      A                      A
 Frequencies --    341.7769               387.9980               429.6527
 Red. masses --      1.6938                 2.2230                 2.4259
 Frc consts  --      0.1166                 0.1972                 0.2639
 IR Inten    --     74.3458                 4.3127                 6.8446

                      7                      8                      9
                      A                      A                      A
 Frequencies --    460.0686               514.9048               591.7789
 Red. masses --      2.3729                 4.7438                 4.2065
 Frc consts  --      0.2959                 0.7410                 0.8679
 IR Inten    --      0.8123                 0.6926                 0.3967

                     10                     11                     12
                      A                      A                      A
 Frequencies --    652.8942               694.7533               800.1422
 Red. masses --      2.9800                 3.5467                 2.9460
 Frc consts  --      0.7484                 1.0086                 1.1113
 IR Inten    --      1.7167                 4.0882                 4.1322

                     13                     14                     15
                      A                      A                      A
 Frequencies --    838.3468               857.9153               869.5738
 Red. masses --      2.6461                 2.3770                 2.4609
 Frc consts  --      1.0957                 1.0308                 1.0964
 IR Inten    --      8.5632                 3.3322                 8.7588

                     16                     17                     18
                      A                      A                      A
 Frequencies --    903.5306               940.4707               968.3933
 Red. masses --      2.5071                 2.1123                 1.7754
 Frc consts  --      1.2059                 1.1007                 0.9809
 IR Inten    --      5.3092                21.8019                 4.0660

                     19                     20                     21
                      A                      A                      A
 Frequencies --    983.9142              1011.4007              1043.7781
 Red. masses --      1.9490                 1.8186                 1.7464
 Frc consts  --      1.1117                 1.0961                 1.1210
 IR Inten    --     17.6984                12.0478                11.4967

                     22                     23                     24
                      A                      A                      A
 Frequencies --   1053.4216              1071.8873              1084.6453
 Red. masses --      2.1538                 2.0829                 1.8304
 Frc consts  --      1.4082                 1.4100                 1.2687
 IR Inten    --     13.5834                21.9196                53.7868

                     25                     26                     27
                      A                      A                      A
 Frequencies --   1111.6458              1143.2579              1173.6633
 Red. masses --      1.8164                 1.5200                 1.7636
 Frc consts  --      1.3225                 1.1705                 1.4314
 IR Inten    --     11.2771                 5.2261                41.6266

                     28                     29                     30
                      A                      A                      A
 Frequencies --   1186.8846              1206.2710              1235.3107
 Red. masses --      1.7457                 2.2182                 1.4450
 Frc consts  --      1.4489                 1.9017                 1.2992
 IR Inten    --      9.1244                 4.0149                20.7208

                     31                     32                     33
                      A                      A                      A
 Frequencies --   1257.3900              1263.4253              1282.1334
 Red. masses --      1.4482                 1.5199                 1.5689
 Frc consts  --      1.3490                 1.4294                 1.5196
 IR Inten    --      4.8357                 9.9133                26.4168

                     34                     35                     36
                      A                      A                      A
 Frequencies --   1310.4329              1321.6818              1353.5562
 Red. masses --      1.7394                 1.9550                 1.4728
 Frc consts  --      1.7598                 2.0121                 1.5898
 IR Inten    --     28.0683               101.7025                10.2258

                     37                     38                     39
                      A                      A                      A
 Frequencies --   1373.1610              1402.5507              1478.4246
 Red. masses --      1.6820                 1.4000                 1.1199
 Frc consts  --      1.8686                 1.6226                 1.4422
 IR Inten    --      4.5635                 6.1063                 3.6488

                     40                     41                     42
                      A                      A                      A
 Frequencies --   1482.6573              1518.6645              2993.3192
 Red. masses --      1.1548                 1.0920                 1.0682
 Frc consts  --      1.4957                 1.4839                 5.6389
 IR Inten    --      1.1235                 0.8332                59.5862

                     43                     44                     45
                      A                      A                      A
 Frequencies --   3035.1928              3058.1231              3066.6561
 Red. masses --      1.0596                 1.0578                 1.0947
 Frc consts  --      5.7514                 5.8284                 6.0659
 IR Inten    --     33.3621                30.2086                41.8063

                     46                     47                     48
                      A                      A                      A
 Frequencies --   3088.4988              3093.8943              3102.3067
 Red. masses --      1.0892                 1.1050                 1.0894
 Frc consts  --      6.1217                 6.2321                 6.1774
 IR Inten    --     39.9974                21.9272                32.1220

                     49                     50                     51
                      A                      A                      A
 Frequencies --   3116.2377              3118.0639              3800.0342
 Red. masses --      1.1024                 1.0950                 1.0657
 Frc consts  --      6.3075                 6.2723                 9.0668
 IR Inten    --     41.8288                23.4064                16.4637

 - Thermochemistry -
 -------------------
 Temperature   298.150 Kelvin.  Pressure   1.00000 Atm.
 Atom     1 has atomic number  8 and mass  15.99491

 Molecular mass:   126.06808 amu.
 Principal axes and moments of inertia in atomic units:
                           1         2         3
     Eigenvalues --   660.20688 972.993181103.25332
           X            0.99841   0.04745   0.03058
           Y           -0.04729   0.99886  -0.00577
           Z           -0.03082   0.00431   0.99952
 This molecule is an asymmetric top.
 Rotational symmetry number  1.
 Warning -- assumption of classical behavior for rotation
           may cause significant error
 Rotational temperatures (Kelvin)      0.13119     0.08902     0.07851
 Rotational constants (GHZ):           2.73360     1.85483     1.63584
 Zero-point vibrational energy     424089.9 (Joules/Mol)
                                  101.35991 (Kcal/Mol)
 Warning -- explicit consideration of   9 degrees of freedom as
           vibrations may cause significant error
 Vibrational temperatures:    329.53   416.57   444.65   491.74   558.24
          (Kelvin)            618.17   661.94   740.83   851.44   939.37
                              999.59  1151.22  1206.19  1234.35  1251.12
                             1299.98  1353.13  1393.30  1415.63  1455.18
                             1501.76  1515.64  1542.20  1560.56  1599.41
                             1644.89  1688.64  1707.66  1735.55  1777.33
                             1809.10  1817.78  1844.70  1885.42  1901.60
                             1947.46  1975.67  2017.96  2127.12  2133.21
                             2185.02  4306.71  4366.96  4399.95  4412.23
                             4443.66  4451.42  4463.52  4483.57  4486.19
                             5467.39

 Zero-point correction=                           0.161527 (Hartree/Particle)
 Thermal correction to Energy=                    0.168386
 Thermal correction to Enthalpy=                  0.169330
 Thermal correction to Gibbs Free Energy=         0.130910
 Sum of electronic and zero-point Energies=           -422.995744
 Sum of electronic and thermal Energies=              -422.988886
 Sum of electronic and thermal Enthalpies=            -422.987942
 Sum of electronic and thermal Free Energies=         -423.026362

                     E (Thermal)             CV                S
                      KCal/Mol        Cal/Mol-Kelvin    Cal/Mol-Kelvin
 Total                  105.664             29.365             80.862
 Electronic               0.000              0.000              0.000
 Translational            0.889              2.981             40.409
 Rotational               0.889              2.981             28.051
 Vibrational            103.886             23.404             12.402
 Vibration     1          0.652              1.797              1.887
 Vibration     2          0.686              1.693              1.477
 Vibration     3          0.698              1.656              1.367
 Vibration     4          0.721              1.592              1.204
 Vibration     5          0.756              1.496              1.008
 Vibration     6          0.791              1.406              0.860
 Vibration     7          0.818              1.339              0.766
 Vibration     8          0.870              1.217              0.622
 Vibration     9          0.949              1.049              0.464

 Normal termination of Gaussian 09 at Mon Jan 27 19:52:20 2020.
