 Gaussian 09, Revision D.01,
 Gaussian 09:  ES64L-G09RevD.01 24-Apr-2013

 -----------------------------
 # b3lyp 6-31G(2df,p) opt Freq
 -----------------------------

 -----
 titel
 -----
 Symbolic Z-matrix:
 Charge =  0 Multiplicity = 1

 SCF Done:  E(RB3LYP) =  -423.193192031     A.U. after   14 cycles
 Optimization completed.
    -- Stationary point found.
 Normal termination of Gaussian 09 at Tue Jan 28 03:20:50 2020.

 ----------------------------------------------------------------------
 #N Geom=AllCheck Guess=TCheck SCRF=Check GenChk RB3LYP/6-31G(2df,p) Fr
 eq
 ----------------------------------------------------------------------

 Structure from the checkpoint file:  "/scratch/puck/g09_2e0716ea-cfa8-42d8-83c1-7d6da6d1932d/Gau-79275.chk"
 -----
 titel
 -----
 Charge =  0 Multiplicity = 1

                         Standard orientation:
 ---------------------------------------------------------------------
 Center     Atomic      Atomic             Coordinates (Angstroms)
 Number     Number       Type             X           Y           Z
 ---------------------------------------------------------------------
      1          8           0       -1.537181    1.554986   -0.474446
      2          6           0       -0.255044    0.979228   -0.477749
      3          6           0        0.559535    1.170315    0.828637
      4          6           0        1.584783    0.049899    0.829186
      5          6           0        2.350905   -0.199033   -0.447755
      6          6           0        1.118547   -1.017165   -0.144114
      7          6           0       -0.211643   -0.557503   -0.745815
      8          6           0       -1.315406   -1.335241   -0.062971
      9          8           0       -2.140292   -0.880097    0.696016
     10          1           0       -2.061900    1.045876    0.159193
     11          1           0        0.271545    1.472585   -1.300864
     12          1           0        0.996952    2.171934    0.883188
     13          1           0       -0.113846    1.055877    1.685923
     14          1           0        2.053804   -0.226337    1.766777
     15          1           0        2.324814    0.538680   -1.243012
     16          1           0        3.301492   -0.714113   -0.361208
     17          1           0        1.247233   -2.073480    0.069217
     18          1           0       -0.277216   -0.787521   -1.818516
     19          1           0       -1.313155   -2.425608   -0.289775
 ---------------------------------------------------------------------

 SCF Done:  E(RB3LYP) =  -423.193192031     A.U. after    1 cycles

 The electronic state is 1-A.
 Alpha  occ. eigenvalues --  -19.15752 -19.12277 -10.28506 -10.23395 -10.20590
 Alpha  occ. eigenvalues --  -10.20381 -10.19783 -10.19443 -10.18122  -1.06375
 Alpha  occ. eigenvalues --   -1.00956  -0.88990  -0.76898  -0.73362  -0.64050
 Alpha  occ. eigenvalues --   -0.60328  -0.56688  -0.56271  -0.51545  -0.50253
 Alpha  occ. eigenvalues --   -0.45826  -0.45482  -0.44750  -0.43619  -0.40401
 Alpha  occ. eigenvalues --   -0.38218  -0.38059  -0.37535  -0.35936  -0.31956
 Alpha  occ. eigenvalues --   -0.29852  -0.28422  -0.26139  -0.25354
 Alpha virt. eigenvalues --   -0.03524   0.08670   0.09029   0.10248   0.11717
 Alpha virt. eigenvalues --    0.12498   0.14244   0.15204   0.16598   0.17460
 Alpha virt. eigenvalues --    0.18118   0.18737   0.19173   0.22573   0.23399

 Mulliken charges:
               1
     1  O   -0.447873
     2  C    0.118394
     3  C   -0.250299
     4  C   -0.023134
     5  C   -0.307697
     6  C   -0.036855
     7  C   -0.148834
     8  C    0.161344
     9  O   -0.266447
    10  H    0.292293
    11  H    0.093116
    12  H    0.104141
    13  H    0.111312
    14  H    0.088105
    15  H    0.118329
    16  H    0.115628
    17  H    0.088401
    18  H    0.096980
    19  H    0.093097
 Sum of Mulliken charges =   0.00000

 Dipole moment (field-independent basis, Debye):
    X=              2.4018    Y=             -1.8303    Z=             -0.4190  Tot=              3.0486
 Quadrupole moment (field-independent basis, Debye-Ang):
   XX=            -56.7602   YY=            -53.7175   ZZ=            -52.8962
   XY=              1.4779   XZ=              0.9822   YZ=              2.2626

  Exact polarizability:  82.883   0.058  74.596  -3.426   2.549  65.624
 Approx polarizability: 117.645  -2.118 108.283 -10.425   4.195 105.430

                      1                      2                      3
                      A                      A                      A
 Frequencies --     91.2407               130.7241               228.2018
 Red. masses --      5.4944                 2.9132                 2.3852
 Frc consts  --      0.0269                 0.0293                 0.0732
 IR Inten    --      3.5062                 1.9775                 1.3619

                      4                      5                      6
                      A                      A                      A
 Frequencies --    250.1219               318.2467               357.8988
 Red. masses --      7.4565                 2.5232                 4.6131
 Frc consts  --      0.2748                 0.1506                 0.3481
 IR Inten    --      6.2620                 0.4663                 4.5107

                      7                      8                      9
                      A                      A                      A
 Frequencies --    396.8835               466.9054               581.1792
 Red. masses --      2.6767                 3.4283                 3.1782
 Frc consts  --      0.2484                 0.4403                 0.6325
 IR Inten    --      0.7752                 5.9752                18.9401

                     10                     11                     12
                      A                      A                      A
 Frequencies --    590.0122               632.7301               742.2147
 Red. masses --      1.1941                 2.8988                 2.6340
 Frc consts  --      0.2449                 0.6838                 0.8549
 IR Inten    --    106.3941                 1.1658                 2.8100

                     13                     14                     15
                      A                      A                      A
 Frequencies --    761.0532               814.5735               825.8459
 Red. masses --      2.9039                 2.7011                 1.6286
 Frc consts  --      0.9910                 1.0560                 0.6544
 IR Inten    --     12.0800                 5.9376                 9.7114

                     16                     17                     18
                      A                      A                      A
 Frequencies --    875.2184               916.9376               949.2400
 Red. masses --      1.6899                 2.3810                 2.0240
 Frc consts  --      0.7627                 1.1795                 1.0745
 IR Inten    --      0.4017                 4.6091                 1.6162

                     19                     20                     21
                      A                      A                      A
 Frequencies --    983.6324              1011.7396              1033.1512
 Red. masses --      2.2451                 1.7073                 1.5761
 Frc consts  --      1.2798                 1.0297                 0.9912
 IR Inten    --     10.9055                 8.4569                 4.0033

                     22                     23                     24
                      A                      A                      A
 Frequencies --   1054.5002              1073.7741              1093.9588
 Red. masses --      1.6993                 1.5209                 1.5409
 Frc consts  --      1.1133                 1.0332                 1.0865
 IR Inten    --      6.7757                 6.2544                 4.5952

                     25                     26                     27
                      A                      A                      A
 Frequencies --   1116.5548              1136.4021              1140.7407
 Red. masses --      1.2858                 2.4223                 2.0934
 Frc consts  --      0.9444                 1.8430                 1.6050
 IR Inten    --      4.3451                68.1975                38.2001

                     28                     29                     30
                      A                      A                      A
 Frequencies --   1180.4347              1207.6856              1235.5482
 Red. masses --      1.4137                 1.6598                 1.5342
 Frc consts  --      1.1606                 1.4263                 1.3799
 IR Inten    --     12.4945                 1.4744                10.2773

                     31                     32                     33
                      A                      A                      A
 Frequencies --   1266.1624              1298.4190              1339.5278
 Red. masses --      1.4398                 1.5875                 1.6376
 Frc consts  --      1.3599                 1.5768                 1.7313
 IR Inten    --     21.8863                 9.5806                 4.9580

                     34                     35                     36
                      A                      A                      A
 Frequencies --   1348.3143              1366.2968              1393.9192
 Red. masses --      1.4720                 1.4409                 1.8713
 Frc consts  --      1.5767                 1.5848                 2.1423
 IR Inten    --      2.9868                10.0533                 4.3783

                     37                     38                     39
                      A                      A                      A
 Frequencies --   1429.6693              1473.4719              1489.4161
 Red. masses --      1.2072                 1.2282                 1.0990
 Frc consts  --      1.4537                 1.5712                 1.4364
 IR Inten    --      9.6325                56.4709                10.0329

                     40                     41                     42
                      A                      A                      A
 Frequencies --   1502.4254              1803.8211              2876.8652
 Red. masses --      1.2093                 9.9927                 1.0832
 Frc consts  --      1.6083                19.1567                 5.2818
 IR Inten    --      9.1370               138.2161               115.2185

                     43                     44                     45
                      A                      A                      A
 Frequencies --   3014.1443              3041.8532              3053.0773
 Red. masses --      1.0826                 1.0613                 1.0845
 Frc consts  --      5.7947                 5.7859                 5.9558
 IR Inten    --     23.3378                20.0779                22.2141

                     46                     47                     48
                      A                      A                      A
 Frequencies --   3089.3890              3132.5610              3155.2358
 Red. masses --      1.1035                 1.0546                 1.0888
 Frc consts  --      6.2052                 6.0971                 6.3864
 IR Inten    --     30.7194                17.0093                13.5963

                     49                     50                     51
                      A                      A                      A
 Frequencies --   3172.5640              3214.9483              3736.6309
 Red. masses --      1.0927                 1.1153                 1.0650
 Frc consts  --      6.4797                 6.7916                 8.7613
 IR Inten    --     15.1807                12.2429                80.6950

 - Thermochemistry -
 -------------------
 Temperature   298.150 Kelvin.  Pressure   1.00000 Atm.
 Atom     1 has atomic number  8 and mass  15.99491

 Molecular mass:   126.06808 amu.
 Principal axes and moments of inertia in atomic units:
                           1         2         3
     Eigenvalues --   684.048791181.940131484.04102
           X            0.99999  -0.00343   0.00213
           Y            0.00335   0.99932   0.03663
           Z           -0.00225  -0.03662   0.99933
 This molecule is an asymmetric top.
 Rotational symmetry number  1.
 Warning -- assumption of classical behavior for rotation
           may cause significant error
 Rotational temperatures (Kelvin)      0.12662     0.07328     0.05836
 Rotational constants (GHZ):           2.63832     1.52693     1.21610
 Zero-point vibrational energy     421062.0 (Joules/Mol)
                                  100.63622 (Kcal/Mol)
 Warning -- explicit consideration of  10 degrees of freedom as
           vibrations may cause significant error
 Vibrational temperatures:    131.27   188.08   328.33   359.87   457.89
          (Kelvin)            514.94   571.03   671.77   836.19   848.89
                              910.36  1067.88  1094.98  1171.99  1188.21
                             1259.24  1319.27  1365.74  1415.23  1455.67
                             1486.47  1517.19  1544.92  1573.96  1606.47
                             1635.03  1641.27  1698.38  1737.59  1777.68
                             1821.72  1868.13  1927.28  1939.92  1965.79
                             2005.54  2056.97  2119.99  2142.93  2161.65
                             2595.29  4139.16  4336.68  4376.54  4392.69
                             4444.94  4507.05  4539.67  4564.61  4625.59
                             5376.17

 Zero-point correction=                           0.160374 (Hartree/Particle)
 Thermal correction to Energy=                    0.168306
 Thermal correction to Enthalpy=                  0.169250
 Thermal correction to Gibbs Free Energy=         0.127942
 Sum of electronic and zero-point Energies=           -423.032818
 Sum of electronic and thermal Energies=              -423.024886
 Sum of electronic and thermal Enthalpies=            -423.023942
 Sum of electronic and thermal Free Energies=         -423.065250

                     E (Thermal)             CV                S
                      KCal/Mol        Cal/Mol-Kelvin    Cal/Mol-Kelvin
 Total                  105.614             31.168             86.940
 Electronic               0.000              0.000              0.000
 Translational            0.889              2.981             40.409
 Rotational               0.889              2.981             28.575
 Vibrational            103.836             25.206             17.957
 Vibration     1          0.602              1.955              3.633
 Vibration     2          0.612              1.923              2.935
 Vibration     3          0.651              1.798              1.893
 Vibration     4          0.663              1.763              1.730
 Vibration     5          0.705              1.639              1.319
 Vibration     6          0.733              1.559              1.131
 Vibration     7          0.763              1.477              0.974
 Vibration     8          0.824              1.323              0.746
 Vibration     9          0.938              1.072              0.483
 Vibration    10          0.947              1.053              0.467

 Optimization completed.
    -- Stationary point found.
 Normal termination of Gaussian 09 at Tue Jan 28 04:05:44 2020.
