 Gaussian 09, Revision D.01,
 Gaussian 09:  ES64L-G09RevD.01 24-Apr-2013

 -----------------------------
 # b3lyp 6-31G(2df,p) opt Freq
 -----------------------------

 -----
 titel
 -----
 Symbolic Z-matrix:
 Charge =  0 Multiplicity = 1

 SCF Done:  E(RB3LYP) =  -423.209437344     A.U. after   13 cycles
 Optimization completed.
    -- Stationary point found.
 Normal termination of Gaussian 09 at Mon Jan 27 22:03:47 2020.

 ----------------------------------------------------------------------
 #N Geom=AllCheck Guess=TCheck SCRF=Check GenChk RB3LYP/6-31G(2df,p) Fr
 eq
 ----------------------------------------------------------------------

 Structure from the checkpoint file:  "/scratch/puck/g09_73f27dc6-5489-4c8d-8cf2-40ea66c8272c/Gau-14908.chk"
 -----
 titel
 -----
 Charge =  0 Multiplicity = 1

                         Standard orientation:
 ---------------------------------------------------------------------
 Center     Atomic      Atomic             Coordinates (Angstroms)
 Number     Number       Type             X           Y           Z
 ---------------------------------------------------------------------
      1          6           0        2.932308   -0.164475    0.547802
      2          6           0        1.538795   -0.107152    0.006909
      3          6           0        0.744417   -1.138295   -0.293067
      4          6           0       -0.599859   -0.713034   -0.821356
      5          8           0       -1.707817   -1.110081   -0.006308
      6          6           0       -1.830233   -0.101498    0.962264
      7          8           0       -1.534569    1.121816    0.319503
      8          6           0       -0.574606    0.843925   -0.698669
      9          6           0        0.869240    1.217412   -0.296340
     10          1           0        3.002514    0.369443    1.503778
     11          1           0        3.266519   -1.193416    0.703581
     12          1           0        3.639287    0.326611   -0.132909
     13          1           0        1.005956   -2.184085   -0.174126
     14          1           0       -0.810444   -1.086799   -1.827783
     15          1           0       -2.862339   -0.077492    1.323932
     16          1           0       -1.135963   -0.273155    1.803361
     17          1           0       -0.902403    1.362211   -1.603112
     18          1           0        1.388512    1.742289   -1.109562
     19          1           0        0.867084    1.899208    0.562023
 ---------------------------------------------------------------------

 SCF Done:  E(RB3LYP) =  -423.209437344     A.U. after    1 cycles

 The electronic state is 1-A.
 Alpha  occ. eigenvalues --  -19.14117 -19.13915 -10.26606 -10.23320 -10.23284
 Alpha  occ. eigenvalues --  -10.19715 -10.18794 -10.18559 -10.17514  -1.08109
 Alpha  occ. eigenvalues --   -0.98751  -0.84434  -0.75411  -0.70728  -0.68946
 Alpha  occ. eigenvalues --   -0.61117  -0.58956  -0.53617  -0.51946  -0.47743
 Alpha  occ. eigenvalues --   -0.46563  -0.45245  -0.43851  -0.42043  -0.40422
 Alpha  occ. eigenvalues --   -0.39560  -0.37778  -0.37310  -0.34880  -0.32826
 Alpha  occ. eigenvalues --   -0.32001  -0.26915  -0.24890  -0.24766
 Alpha virt. eigenvalues --    0.01475   0.09056   0.10259   0.11981   0.13101
 Alpha virt. eigenvalues --    0.14143   0.15025   0.15728   0.16851   0.17163
 Alpha virt. eigenvalues --    0.17740   0.18513   0.19205   0.20659   0.21690

 Mulliken charges:
               1
     1  C   -0.488399
     2  C    0.320509
     3  C   -0.204869
     4  C    0.041878
     5  O   -0.250640
     6  C    0.014145
     7  O   -0.262018
     8  C    0.074015
     9  C   -0.320511
    10  H    0.130611
    11  H    0.126871
    12  H    0.128636
    13  H    0.093652
    14  H    0.088374
    15  H    0.116240
    16  H    0.082242
    17  H    0.085288
    18  H    0.106117
    19  H    0.117857
 Sum of Mulliken charges =   0.00000

 Dipole moment (field-independent basis, Debye):
    X=              2.0188    Y=              0.1438    Z=             -0.1901  Tot=              2.0329
 Quadrupole moment (field-independent basis, Debye-Ang):
   XX=            -53.2320   YY=            -55.2429   ZZ=            -50.5147
   XY=              0.2338   XZ=             -0.3906   YZ=             -0.8275

  Exact polarizability:  89.570   5.100  74.011   1.523   0.171  65.874
 Approx polarizability: 118.984  14.022 118.573   2.508   4.046  99.155

                      1                      2                      3
                      A                      A                      A
 Frequencies --     74.3189               124.5322               180.9724
 Red. masses --      3.4541                 2.8458                 1.0869
 Frc consts  --      0.0112                 0.0260                 0.0210
 IR Inten    --      0.8288                 0.1411                 0.1781

                      4                      5                      6
                      A                      A                      A
 Frequencies --    250.2830               291.3455               408.7974
 Red. masses --      2.5125                 2.6332                 3.5371
 Frc consts  --      0.0927                 0.1317                 0.3483
 IR Inten    --      6.0222                 0.1514                 7.5408

                      7                      8                      9
                      A                      A                      A
 Frequencies --    410.8218               486.2735               601.8927
 Red. masses --      2.2502                 2.8134                 6.0708
 Frc consts  --      0.2238                 0.3920                 1.2958
 IR Inten    --      1.4592                 3.9535                 5.4285

                     10                     11                     12
                      A                      A                      A
 Frequencies --    607.6309               738.7392               818.2582
 Red. masses --      3.3786                 7.9454                 2.4255
 Frc consts  --      0.7350                 2.5548                 0.9568
 IR Inten    --      3.0897                 0.6822                 1.7497

                     13                     14                     15
                      A                      A                      A
 Frequencies --    831.5228               875.7343               881.0383
 Red. masses --      2.0160                 2.6099                 2.6412
 Frc consts  --      0.8213                 1.1793                 1.2079
 IR Inten    --     10.7461                 4.3139                 5.0755

                     16                     17                     18
                      A                      A                      A
 Frequencies --    904.2713               963.2499               992.9664
 Red. masses --      3.2333                 2.7336                 1.9173
 Frc consts  --      1.5577                 1.4944                 1.1138
 IR Inten    --      8.3666                58.7257                10.3195

                     19                     20                     21
                      A                      A                      A
 Frequencies --   1000.3590              1022.0694              1045.8941
 Red. masses --      3.5865                 1.6982                 1.9696
 Frc consts  --      2.1146                 1.0452                 1.2694
 IR Inten    --     26.4734                10.7541                 8.2849

                     22                     23                     24
                      A                      A                      A
 Frequencies --   1055.4471              1084.9828              1104.9101
 Red. masses --      1.7876                 2.9127                 3.3160
 Frc consts  --      1.1733                 2.0202                 2.3852
 IR Inten    --     14.3074                35.5989                92.4877

                     25                     26                     27
                      A                      A                      A
 Frequencies --   1173.7098              1181.4305              1202.4116
 Red. masses --      2.2361                 1.7411                 1.3421
 Frc consts  --      1.8149                 1.4318                 1.1433
 IR Inten    --     26.8558                54.7344                22.1311

                     28                     29                     30
                      A                      A                      A
 Frequencies --   1230.6355              1270.2645              1286.9126
 Red. masses --      1.0969                 2.1501                 1.3798
 Frc consts  --      0.9788                 2.0441                 1.3464
 IR Inten    --      0.0956                 4.8034                 1.1744

                     31                     32                     33
                      A                      A                      A
 Frequencies --   1302.6104              1345.6127              1355.9078
 Red. masses --      1.6010                 1.3805                 1.4723
 Frc consts  --      1.6005                 1.4727                 1.5948
 IR Inten    --      1.9240                 7.7400                18.7007

                     34                     35                     36
                      A                      A                      A
 Frequencies --   1372.9822              1413.5470              1428.1512
 Red. masses --      1.4190                 1.2961                 1.2650
 Frc consts  --      1.5760                 1.5259                 1.5202
 IR Inten    --      1.5978                 1.2762                 8.5201

                     37                     38                     39
                      A                      A                      A
 Frequencies --   1472.2155              1478.8419              1486.3450
 Red. masses --      1.0894                 1.0448                 1.0640
 Frc consts  --      1.3912                 1.3462                 1.3850
 IR Inten    --      3.0155                 7.3470                 8.2740

                     40                     41                     42
                      A                      A                      A
 Frequencies --   1540.6911              1717.1011              2948.1209
 Red. masses --      1.0988                 6.9003                 1.0699
 Frc consts  --      1.5367                11.9870                 5.4787
 IR Inten    --      2.4251                14.3683                86.3197

                     43                     44                     45
                      A                      A                      A
 Frequencies --   3016.8409              3021.3837              3060.3267
 Red. masses --      1.0570                 1.0462                 1.0917
 Frc consts  --      5.6678                 5.6268                 6.0238
 IR Inten    --     11.3420                43.7913                22.2674

                     46                     47                     48
                      A                      A                      A
 Frequencies --   3062.7658              3067.3470              3078.8723
 Red. masses --      1.0904                 1.0980                 1.0878
 Frc consts  --      6.0262                 6.0867                 6.0757
 IR Inten    --      4.5623                17.0437                65.6084

                     49                     50                     51
                      A                      A                      A
 Frequencies --   3086.4497              3115.0877              3192.9564
 Red. masses --      1.0953                 1.0995                 1.0939
 Frc consts  --      6.1474                 6.2862                 6.5710
 IR Inten    --     50.5793                17.9894                10.4920

 - Thermochemistry -
 -------------------
 Temperature   298.150 Kelvin.  Pressure   1.00000 Atm.
 Atom     1 has atomic number  6 and mass  12.00000

 Molecular mass:   126.06808 amu.
 Principal axes and moments of inertia in atomic units:
                           1         2         3
     Eigenvalues --   544.472271340.373301544.16317
           X            0.99997   0.00252   0.00792
           Y           -0.00230   0.99961  -0.02769
           Z           -0.00799   0.02767   0.99959
 This molecule is an asymmetric top.
 Rotational symmetry number  1.
 Warning -- assumption of classical behavior for rotation
           may cause significant error
 Rotational temperatures (Kelvin)      0.15908     0.06462     0.05609
 Rotational constants (GHZ):           3.31466     1.34645     1.16875
 Zero-point vibrational energy     422675.5 (Joules/Mol)
                                  101.02188 (Kcal/Mol)
 Warning -- explicit consideration of  10 degrees of freedom as
           vibrations may cause significant error
 Vibrational temperatures:    106.93   179.17   260.38   360.10   419.18
          (Kelvin)            588.17   591.08   699.64   865.99   874.24
                             1062.88  1177.29  1196.37  1259.98  1267.62
                             1301.04  1385.90  1428.66  1439.29  1470.53
                             1504.81  1518.55  1561.05  1589.72  1688.70
                             1699.81  1730.00  1770.61  1827.63  1851.58
                             1874.16  1936.03  1950.85  1975.41  2033.78
                             2054.79  2118.19  2127.72  2138.52  2216.71
                             2470.52  4241.68  4340.56  4347.09  4403.12
                             4406.63  4413.22  4429.80  4440.71  4481.91
                             4593.95

 Zero-point correction=                           0.160989 (Hartree/Particle)
 Thermal correction to Energy=                    0.168792
 Thermal correction to Enthalpy=                  0.169736
 Thermal correction to Gibbs Free Energy=         0.128362
 Sum of electronic and zero-point Energies=           -423.048449
 Sum of electronic and thermal Energies=              -423.040645
 Sum of electronic and thermal Enthalpies=            -423.039701
 Sum of electronic and thermal Free Energies=         -423.081075

                     E (Thermal)             CV                S
                      KCal/Mol        Cal/Mol-Kelvin    Cal/Mol-Kelvin
 Total                  105.919             29.882             87.079
 Electronic               0.000              0.000              0.000
 Translational            0.889              2.981             40.409
 Rotational               0.889              2.981             28.512
 Vibrational            104.141             23.920             18.158
 Vibration     1          0.599              1.966              4.036
 Vibration     2          0.610              1.928              3.029
 Vibration     3          0.630              1.866              2.318
 Vibration     4          0.663              1.762              1.729
 Vibration     5          0.687              1.690              1.466
 Vibration     6          0.773              1.451              0.931
 Vibration     7          0.775              1.447              0.924
 Vibration     8          0.842              1.280              0.693
 Vibration     9          0.960              1.028              0.446
 Vibration    10          0.966              1.016              0.437

 Optimization completed.
    -- Stationary point found.
 Normal termination of Gaussian 09 at Mon Jan 27 22:53:33 2020.
