 Gaussian 09, Revision D.01,
 Gaussian 09:  ES64L-G09RevD.01 24-Apr-2013

 -----------------------------
 # b3lyp 6-31G(2df,p) opt Freq
 -----------------------------

 -----
 titel
 -----
 Symbolic Z-matrix:
 Charge =  0 Multiplicity = 1

 SCF Done:  E(RB3LYP) =  -423.207315328     A.U. after   14 cycles
 Optimization completed.
    -- Stationary point found.
 Normal termination of Gaussian 09 at Mon Jan 27 16:27:15 2020.

 ----------------------------------------------------------------------
 #N Geom=AllCheck Guess=TCheck SCRF=Check GenChk RB3LYP/6-31G(2df,p) Fr
 eq
 ----------------------------------------------------------------------

 Structure from the checkpoint file:  "/scratch/puck/g09_22073e03-532d-4578-b419-1b36e4df0316/Gau-165429.chk"
 -----
 titel
 -----
 Charge =  0 Multiplicity = 1

                         Standard orientation:
 ---------------------------------------------------------------------
 Center     Atomic      Atomic             Coordinates (Angstroms)
 Number     Number       Type             X           Y           Z
 ---------------------------------------------------------------------
      1          6           0       -2.229678    1.243901    0.049936
      2          6           0       -1.256826    0.084419   -0.052904
      3          6           0       -1.300081   -0.999288    0.997075
      4          6           0       -1.792140   -1.281418   -0.404168
      5          6           0        0.077519    0.494051   -0.625189
      6          6           0        1.078637    1.231352    0.291033
      7          6           0        1.954643    0.004734    0.048222
      8          8           0        3.032618   -0.390384    0.352173
      9          8           0        1.028437   -0.623178   -0.750936
     10          1           0       -2.424282    1.689169   -0.933136
     11          1           0       -3.187889    0.911144    0.458568
     12          1           0       -1.847099    2.035769    0.704832
     13          1           0       -0.370735   -1.470437    1.295956
     14          1           0       -2.030843   -0.899769    1.792446
     15          1           0       -1.174960   -1.923844   -1.021299
     16          1           0       -2.859752   -1.378187   -0.569809
     17          1           0       -0.048273    0.959942   -1.608106
     18          1           0        1.498774    2.166160   -0.082678
     19          1           0        0.764173    1.352041    1.329298
 ---------------------------------------------------------------------

 SCF Done:  E(RB3LYP) =  -423.207315328     A.U. after    1 cycles

 The electronic state is 1-A.
 Alpha  occ. eigenvalues --  -19.18065 -19.13421 -10.30945 -10.25895 -10.21085
 Alpha  occ. eigenvalues --  -10.21007 -10.19240 -10.19112 -10.18998  -1.10522
 Alpha  occ. eigenvalues --   -1.03274  -0.87466  -0.77574  -0.72665  -0.68118
 Alpha  occ. eigenvalues --   -0.60809  -0.56361  -0.54094  -0.51846  -0.50860
 Alpha  occ. eigenvalues --   -0.48044  -0.46473  -0.43377  -0.42860  -0.40423
 Alpha  occ. eigenvalues --   -0.39592  -0.39496  -0.37012  -0.36375  -0.35611
 Alpha  occ. eigenvalues --   -0.30827  -0.29436  -0.28423  -0.27321
 Alpha virt. eigenvalues --    0.01062   0.07731   0.08780   0.10404   0.10579
 Alpha virt. eigenvalues --    0.11705   0.12339   0.14112   0.14620   0.15713
 Alpha virt. eigenvalues --    0.17735   0.18797   0.19163   0.20223   0.22071

 Mulliken charges:
               1
     1  C   -0.467744
     2  C    0.334449
     3  C   -0.310483
     4  C   -0.304345
     5  C    0.058784
     6  C   -0.429255
     7  C    0.447227
     8  O   -0.314542
     9  O   -0.252568
    10  H    0.120694
    11  H    0.123997
    12  H    0.120095
    13  H    0.129943
    14  H    0.111869
    15  H    0.133896
    16  H    0.112176
    17  H    0.097215
    18  H    0.142984
    19  H    0.145608
 Sum of Mulliken charges =   0.00000

 Dipole moment (field-independent basis, Debye):
    X=             -3.3484    Y=              2.3395    Z=             -0.0185  Tot=              4.0848
 Quadrupole moment (field-independent basis, Debye-Ang):
   XX=            -62.0524   YY=            -52.4826   ZZ=            -52.3148
   XY=              3.6753   XZ=             -1.2767   YZ=             -0.7628

  Exact polarizability:  88.179  -0.561  73.010   3.610  -0.238  64.833
 Approx polarizability: 120.955  -3.183 106.962   8.877   0.455 102.251

                      1                      2                      3
                      A                      A                      A
 Frequencies --     77.4468                85.8745               188.8824
 Red. masses --      3.6072                 5.2752                 2.4540
 Frc consts  --      0.0127                 0.0229                 0.0516
 IR Inten    --      1.2138                 2.6583                 2.0035

                      4                      5                      6
                      A                      A                      A
 Frequencies --    216.9501               264.5978               305.6321
 Red. masses --      1.1828                 3.3928                 2.3944
 Frc consts  --      0.0328                 0.1400                 0.1318
 IR Inten    --      0.2331                 0.0027                 0.0505

                      7                      8                      9
                      A                      A                      A
 Frequencies --    338.6464               427.1951               480.4734
 Red. masses --      2.1699                 4.2413                 3.0296
 Frc consts  --      0.1466                 0.4560                 0.4121
 IR Inten    --      0.0561                 1.2016                 1.0252

                     10                     11                     12
                      A                      A                      A
 Frequencies --    521.2186               543.4185               673.7003
 Red. masses --      2.2338                 3.9468                 2.7844
 Frc consts  --      0.3575                 0.6867                 0.7446
 IR Inten    --      3.5742                 7.0084                 2.2825

                     13                     14                     15
                      A                      A                      A
 Frequencies --    770.4731               794.3021               851.5148
 Red. masses --      5.9394                 1.0371                 2.2329
 Frc consts  --      2.0773                 0.3855                 0.9539
 IR Inten    --      7.3766                 0.2225                 3.1855

                     16                     17                     18
                      A                      A                      A
 Frequencies --    878.8960               915.1806               927.6450
 Red. masses --      2.5503                 3.1120                 1.6764
 Frc consts  --      1.1607                 1.5357                 0.8500
 IR Inten    --      3.9683                28.1488                21.7067

                     19                     20                     21
                      A                      A                      A
 Frequencies --    951.9232               969.7527              1027.5609
 Red. masses --      1.7253                 4.5863                 1.9450
 Frc consts  --      0.9211                 2.5412                 1.2100
 IR Inten    --      8.5491                48.2048                24.8504

                     22                     23                     24
                      A                      A                      A
 Frequencies --   1042.5551              1052.2076              1068.3380
 Red. masses --      1.7272                 1.8354                 1.8067
 Frc consts  --      1.1061                 1.1973                 1.2149
 IR Inten    --     10.8772                15.8364                 6.3609

                     25                     26                     27
                      A                      A                      A
 Frequencies --   1091.9399              1112.3030              1126.9970
 Red. masses --      1.3987                 1.6266                 2.5150
 Frc consts  --      0.9826                 1.1857                 1.8821
 IR Inten    --      0.1748                12.4594                90.5686

                     28                     29                     30
                      A                      A                      A
 Frequencies --   1151.3983              1193.3451              1221.2210
 Red. masses --      1.6287                 1.2873                 1.5591
 Frc consts  --      1.2722                 1.0801                 1.3699
 IR Inten    --      6.8513                 0.0523                 9.2926

                     31                     32                     33
                      A                      A                      A
 Frequencies --   1278.4199              1300.3834              1359.9608
 Red. masses --      1.9343                 1.7192                 2.1088
 Frc consts  --      1.8626                 1.7129                 2.2980
 IR Inten    --      4.9570                34.7144                 2.3517

                     34                     35                     36
                      A                      A                      A
 Frequencies --   1393.3236              1420.5244              1451.0709
 Red. masses --      1.8712                 1.2905                 1.1262
 Frc consts  --      2.1403                 1.5342                 1.3971
 IR Inten    --     15.7001                 4.8321                 9.6804

                     37                     38                     39
                      A                      A                      A
 Frequencies --   1461.5811              1491.3308              1497.3299
 Red. masses --      1.0880                 1.0458                 1.1118
 Frc consts  --      1.3694                 1.3704                 1.4687
 IR Inten    --      6.0225                 2.9096                 9.2139

                     40                     41                     42
                      A                      A                      A
 Frequencies --   1510.5652              1940.9831              3022.4299
 Red. masses --      1.3461                12.8366                 1.0369
 Frc consts  --      1.8096                28.4934                 5.5808
 IR Inten    --      0.5805               476.6336                27.1730

                     43                     44                     45
                      A                      A                      A
 Frequencies --   3055.8377              3079.9271              3089.4700
 Red. masses --      1.0861                 1.1006                 1.0596
 Frc consts  --      5.9757                 6.1513                 5.9586
 IR Inten    --     31.7235                26.0479                 4.5036

                     46                     47                     48
                      A                      A                      A
 Frequencies --   3107.1440              3136.1745              3139.4253
 Red. masses --      1.0996                 1.0510                 1.0582
 Frc consts  --      6.2546                 6.0907                 6.1450
 IR Inten    --     18.5960                14.4072                 8.8698

                     49                     50                     51
                      A                      A                      A
 Frequencies --   3148.4154              3219.2816              3232.0218
 Red. masses --      1.1072                 1.1174                 1.1158
 Frc consts  --      6.4661                 6.8229                 6.8670
 IR Inten    --      4.2148                 0.3925                10.7213

 - Thermochemistry -
 -------------------
 Temperature   298.150 Kelvin.  Pressure   1.00000 Atm.
 Atom     1 has atomic number  6 and mass  12.00000

 Molecular mass:   126.06808 amu.
 Principal axes and moments of inertia in atomic units:
                           1         2         3
     Eigenvalues --   524.974221569.984631788.09361
           X            0.99998   0.00582  -0.00269
           Y           -0.00584   0.99996  -0.00623
           Z            0.00265   0.00624   0.99998
 This molecule is an asymmetric top.
 Rotational symmetry number  1.
 Warning -- assumption of classical behavior for rotation
           may cause significant error
 Rotational temperatures (Kelvin)      0.16499     0.05517     0.04844
 Rotational constants (GHZ):           3.43777     1.14953     1.00931
 Zero-point vibrational energy     416343.4 (Joules/Mol)
                                   99.50847 (Kcal/Mol)
 Warning -- explicit consideration of  11 degrees of freedom as
           vibrations may cause significant error
 Vibrational temperatures:    111.43   123.55   271.76   312.14   380.70
          (Kelvin)            439.74   487.24   614.64   691.29   749.92
                              781.86   969.30  1108.54  1142.82  1225.14
                             1264.53  1316.74  1334.67  1369.60  1395.26
                             1478.43  1500.00  1513.89  1537.10  1571.06
                             1600.35  1621.50  1656.60  1716.96  1757.06
                             1839.36  1870.96  1956.68  2004.68  2043.82
                             2087.76  2102.89  2145.69  2154.32  2173.36
                             2792.64  4348.60  4396.66  4431.32  4445.05
                             4470.48  4512.25  4516.93  4529.86  4631.82
                             4650.15

 Zero-point correction=                           0.158577 (Hartree/Particle)
 Thermal correction to Energy=                    0.167163
 Thermal correction to Enthalpy=                  0.168108
 Thermal correction to Gibbs Free Energy=         0.125121
 Sum of electronic and zero-point Energies=           -423.048738
 Sum of electronic and thermal Energies=              -423.040152
 Sum of electronic and thermal Enthalpies=            -423.039208
 Sum of electronic and thermal Free Energies=         -423.082195

                     E (Thermal)             CV                S
                      KCal/Mol        Cal/Mol-Kelvin    Cal/Mol-Kelvin
 Total                  104.897             32.561             90.473
 Electronic               0.000              0.000              0.000
 Translational            0.889              2.981             40.409
 Rotational               0.889              2.981             28.779
 Vibrational            103.119             26.599             21.286
 Vibration     1          0.599              1.964              3.955
 Vibration     2          0.601              1.959              3.752
 Vibration     3          0.633              1.855              2.239
 Vibration     4          0.646              1.815              1.984
 Vibration     5          0.671              1.738              1.631
 Vibration     6          0.696              1.663              1.386
 Vibration     7          0.719              1.598              1.219
 Vibration     8          0.789              1.411              0.868
 Vibration     9          0.837              1.293              0.709
 Vibration    10          0.876              1.203              0.607
 Vibration    11          0.899              1.154              0.558

 Normal termination of Gaussian 09 at Mon Jan 27 17:08:33 2020.
