 Gaussian 09, Revision D.01,
 Gaussian 09:  ES64L-G09RevD.01 24-Apr-2013

 -----------------------------
 # b3lyp 6-31G(2df,p) opt Freq
 -----------------------------

 -----
 titel
 -----
 Symbolic Z-matrix:
 Charge =  0 Multiplicity = 1

 SCF Done:  E(RB3LYP) =  -423.185794842     A.U. after   13 cycles
 Optimization completed.
    -- Stationary point found.
 Normal termination of Gaussian 09 at Mon Jan 27 22:07:19 2020.

 ----------------------------------------------------------------------
 #N Geom=AllCheck Guess=TCheck SCRF=Check GenChk RB3LYP/6-31G(2df,p) Fr
 eq
 ----------------------------------------------------------------------

 Structure from the checkpoint file:  "/scratch/puck/g09_14177948-5a96-40ba-bbab-6b05887472a2/Gau-116803.chk"
 -----
 titel
 -----
 Charge =  0 Multiplicity = 1

                         Standard orientation:
 ---------------------------------------------------------------------
 Center     Atomic      Atomic             Coordinates (Angstroms)
 Number     Number       Type             X           Y           Z
 ---------------------------------------------------------------------
      1          8           0        2.395790   -0.070463   -0.295719
      2          6           0        1.034932   -0.263454   -0.664224
      3          6           0        0.351856    1.085218   -0.627993
      4          6           0       -0.243144    1.247429    0.778402
      5          6           0        0.072770   -0.030803    1.543126
      6          6           0        0.226008   -1.050448    0.393176
      7          6           0       -1.154240   -1.364706   -0.191302
      8          8           0       -1.859885   -0.178050   -0.553470
      9          6           0       -1.137294    1.016167   -0.405423
     10          1           0        2.837218   -0.924984   -0.339914
     11          1           0        0.970586   -0.742945   -1.653223
     12          1           0        0.792138    1.910037   -1.175880
     13          1           0       -0.246851    2.203225    1.289773
     14          1           0        1.009854    0.074325    2.096803
     15          1           0       -0.716597   -0.318658    2.245929
     16          1           0        0.720074   -1.980543    0.690368
     17          1           0       -1.058573   -1.999595   -1.085132
     18          1           0       -1.763026   -1.910745    0.541302
     19          1           0       -1.737394    1.841570   -0.771082
 ---------------------------------------------------------------------

 SCF Done:  E(RB3LYP) =  -423.185794842     A.U. after    1 cycles

 The electronic state is 1-A.
 Alpha  occ. eigenvalues --  -19.13755 -19.13579 -10.23265 -10.23155 -10.22827
 Alpha  occ. eigenvalues --  -10.18948 -10.18347 -10.18180 -10.18130  -1.03548
 Alpha  occ. eigenvalues --   -1.01710  -0.86868  -0.78697  -0.70561  -0.66482
 Alpha  occ. eigenvalues --   -0.62452  -0.54984  -0.53948  -0.51157  -0.50401
 Alpha  occ. eigenvalues --   -0.47044  -0.46427  -0.43337  -0.42204  -0.38485
 Alpha  occ. eigenvalues --   -0.38021  -0.36892  -0.34969  -0.33358  -0.32722
 Alpha  occ. eigenvalues --   -0.31489  -0.26626  -0.26368  -0.22335
 Alpha virt. eigenvalues --    0.07204   0.08951   0.11616   0.12778   0.13369
 Alpha virt. eigenvalues --    0.14199   0.15325   0.16591   0.17513   0.17723
 Alpha virt. eigenvalues --    0.17946   0.18481   0.19526   0.20861   0.23043

 Mulliken charges:
               1
     1  O   -0.448094
     2  C    0.137864
     3  C   -0.101998
     4  C   -0.097192
     5  C   -0.215314
     6  C   -0.122419
     7  C   -0.064884
     8  O   -0.277014
     9  C    0.116986
    10  H    0.278138
    11  H    0.062469
    12  H    0.087801
    13  H    0.081137
    14  H    0.110391
    15  H    0.096366
    16  H    0.061136
    17  H    0.091939
    18  H    0.100142
    19  H    0.102545
 Sum of Mulliken charges =   0.00000

 Dipole moment (field-independent basis, Debye):
    X=              0.8142    Y=             -1.2568    Z=              0.3083  Tot=              1.5289
 Quadrupole moment (field-independent basis, Debye-Ang):
   XX=            -57.3910   YY=            -47.6735   ZZ=            -52.8152
   XY=             -4.5381   XZ=             -1.6135   YZ=             -0.1141

  Exact polarizability:  74.055  -1.016  76.186  -0.580   0.053  69.217
 Approx polarizability: 109.429  -0.680 108.867   0.150   0.631 104.393

                      1                      2                      3
                      A                      A                      A
 Frequencies --    121.0684               216.8525               295.3491
 Red. masses --      3.9299                 3.0771                 1.1072
 Frc consts  --      0.0339                 0.0853                 0.0569
 IR Inten    --      2.8705                 0.9599                89.3983

                      4                      5                      6
                      A                      A                      A
 Frequencies --    318.0402               364.9154               405.5975
 Red. masses --      3.6198                 2.1859                 4.9394
 Frc consts  --      0.2157                 0.1715                 0.4788
 IR Inten    --     14.5411                 1.4803                 2.6565

                      7                      8                      9
                      A                      A                      A
 Frequencies --    531.5101               565.0875               653.1984
 Red. masses --      3.3232                 5.2179                 4.7081
 Frc consts  --      0.5531                 0.9817                 1.1835
 IR Inten    --      7.0418                 1.0261                 3.3827

                     10                     11                     12
                      A                      A                      A
 Frequencies --    727.9784               757.8444               798.8449
 Red. masses --      4.2717                 3.1434                 2.1604
 Frc consts  --      1.3338                 1.0637                 0.8123
 IR Inten    --     16.4176                10.3697                 9.7782

                     13                     14                     15
                      A                      A                      A
 Frequencies --    828.2869               847.7132               903.3847
 Red. masses --      2.1623                 2.8423                 2.9516
 Frc consts  --      0.8740                 1.2034                 1.4192
 IR Inten    --      4.4214                 2.8739                17.1384

                     16                     17                     18
                      A                      A                      A
 Frequencies --    915.0870               928.9599               988.1763
 Red. masses --      1.8305                 2.4074                 1.9790
 Frc consts  --      0.9031                 1.2240                 1.1386
 IR Inten    --      1.8695                 3.8917                10.8902

                     19                     20                     21
                      A                      A                      A
 Frequencies --   1010.9617              1032.0875              1046.3684
 Red. masses --      1.9352                 1.9177                 1.5170
 Frc consts  --      1.1653                 1.2035                 0.9786
 IR Inten    --     17.7475                15.2482                13.1259

                     22                     23                     24
                      A                      A                      A
 Frequencies --   1068.1536              1092.6644              1099.5251
 Red. masses --      2.0502                 1.4405                 1.4263
 Frc consts  --      1.3782                 1.0133                 1.0159
 IR Inten    --     20.3969                12.7382                 0.4947

                     25                     26                     27
                      A                      A                      A
 Frequencies --   1112.5584              1120.6845              1175.8229
 Red. masses --      1.9627                 3.0143                 1.4604
 Frc consts  --      1.4314                 2.2305                 1.1896
 IR Inten    --      6.7354                34.4294                15.0355

                     28                     29                     30
                      A                      A                      A
 Frequencies --   1202.2485              1218.0160              1235.2049
 Red. masses --      1.7019                 1.4574                 1.3435
 Frc consts  --      1.4494                 1.2739                 1.2077
 IR Inten    --     22.6318                30.6346                95.7069

                     31                     32                     33
                      A                      A                      A
 Frequencies --   1272.1749              1293.0583              1324.7375
 Red. masses --      1.5436                 1.5545                 1.4042
 Frc consts  --      1.4719                 1.5314                 1.4519
 IR Inten    --      3.4822                 3.2661                 2.3259

                     34                     35                     36
                      A                      A                      A
 Frequencies --   1331.0638              1344.6328              1358.1966
 Red. masses --      1.7256                 1.3295                 1.4630
 Frc consts  --      1.8013                 1.4163                 1.5901
 IR Inten    --     16.3486                 0.5054                 2.4392

                     37                     38                     39
                      A                      A                      A
 Frequencies --   1409.4347              1433.5590              1440.5562
 Red. masses --      1.4864                 1.6959                 1.8182
 Frc consts  --      1.7397                 2.0534                 2.2230
 IR Inten    --      8.8874                12.5848                28.2327

                     40                     41                     42
                      A                      A                      A
 Frequencies --   1490.2406              1521.4469              2978.9453
 Red. masses --      1.1204                 1.0913                 1.0797
 Frc consts  --      1.4660                 1.4883                 5.6452
 IR Inten    --      3.6573                 1.2151                19.2167

                     43                     44                     45
                      A                      A                      A
 Frequencies --   2988.1258              3027.9613              3044.9750
 Red. masses --      1.0670                 1.1009                 1.0614
 Frc consts  --      5.6131                 5.9469                 5.7980
 IR Inten    --    115.7483                38.5186                40.3275

                     46                     47                     48
                      A                      A                      A
 Frequencies --   3066.7951              3094.4691              3170.4433
 Red. masses --      1.0862                 1.1036                 1.0895
 Frc consts  --      6.0190                 6.2261                 6.4522
 IR Inten    --     47.2909                21.2404                12.3573

                     49                     50                     51
                      A                      A                      A
 Frequencies --   3175.3950              3187.2662              3811.7000
 Red. masses --      1.0896                 1.0942                 1.0661
 Frc consts  --      6.4731                 6.5492                 9.1259
 IR Inten    --      9.8592                26.6612                14.4662

 - Thermochemistry -
 -------------------
 Temperature   298.150 Kelvin.  Pressure   1.00000 Atm.
 Atom     1 has atomic number  8 and mass  15.99491

 Molecular mass:   126.06808 amu.
 Principal axes and moments of inertia in atomic units:
                           1         2         3
     Eigenvalues --   649.112581028.235031145.85137
           X            0.99989  -0.01147  -0.00901
           Y            0.01145   0.99993  -0.00266
           Z            0.00904   0.00256   0.99996
 This molecule is an asymmetric top.
 Rotational symmetry number  1.
 Warning -- assumption of classical behavior for rotation
           may cause significant error
 Rotational temperatures (Kelvin)      0.13343     0.08424     0.07559
 Rotational constants (GHZ):           2.78032     1.75518     1.57502
 Zero-point vibrational energy     426752.0 (Joules/Mol)
                                  101.99618 (Kcal/Mol)
 Warning -- explicit consideration of   8 degrees of freedom as
           vibrations may cause significant error
 Vibrational temperatures:    174.19   312.00   424.94   457.59   525.03
          (Kelvin)            583.56   764.72   813.03   939.81  1047.40
                             1090.37  1149.36  1191.72  1219.67  1299.77
                             1316.60  1336.56  1421.76  1454.55  1484.94
                             1505.49  1536.83  1572.10  1581.97  1600.72
                             1612.41  1691.74  1729.77  1752.45  1777.18
                             1830.37  1860.42  1906.00  1915.10  1934.62
                             1954.14  2027.86  2062.57  2072.64  2144.12
                             2189.02  4286.03  4299.24  4356.56  4381.03
                             4412.43  4452.25  4561.56  4568.68  4585.76
                             5484.18

 Zero-point correction=                           0.162541 (Hartree/Particle)
 Thermal correction to Energy=                    0.169573
 Thermal correction to Enthalpy=                  0.170517
 Thermal correction to Gibbs Free Energy=         0.131367
 Sum of electronic and zero-point Energies=           -423.023254
 Sum of electronic and thermal Energies=              -423.016222
 Sum of electronic and thermal Enthalpies=            -423.015278
 Sum of electronic and thermal Free Energies=         -423.054428

                     E (Thermal)             CV                S
                      KCal/Mol        Cal/Mol-Kelvin    Cal/Mol-Kelvin
 Total                  106.408             28.917             82.398
 Electronic               0.000              0.000              0.000
 Translational            0.889              2.981             40.409
 Rotational               0.889              2.981             28.127
 Vibrational            104.631             22.956             13.863
 Vibration     1          0.609              1.932              3.083
 Vibration     2          0.646              1.815              1.985
 Vibration     3          0.690              1.682              1.443
 Vibration     4          0.704              1.639              1.320
 Vibration     5          0.738              1.544              1.101
 Vibration     6          0.771              1.458              0.942
 Vibration     7          0.886              1.180              0.584
 Vibration     8          0.921              1.107              0.514

 Optimization completed.
    -- Stationary point found.
 Normal termination of Gaussian 09 at Mon Jan 27 23:07:17 2020.
