 Gaussian 09, Revision D.01,
 Gaussian 09:  ES64L-G09RevD.01 24-Apr-2013

 -----------------------------
 # b3lyp 6-31G(2df,p) opt Freq
 -----------------------------

 -----
 titel
 -----
 Symbolic Z-matrix:
 Charge =  0 Multiplicity = 1

 SCF Done:  E(RB3LYP) =  -423.203332946     A.U. after   14 cycles
 Optimization completed.
    -- Stationary point found.
 Normal termination of Gaussian 09 at Tue Jan 28 00:02:49 2020.

 ----------------------------------------------------------------------
 #N Geom=AllCheck Guess=TCheck SCRF=Check GenChk RB3LYP/6-31G(2df,p) Fr
 eq
 ----------------------------------------------------------------------

 Structure from the checkpoint file:  "/scratch/puck/g09_8acf9beb-f9d2-459b-bab7-daaec7e97f58/Gau-116671.chk"
 -----
 titel
 -----
 Charge =  0 Multiplicity = 1

                         Standard orientation:
 ---------------------------------------------------------------------
 Center     Atomic      Atomic             Coordinates (Angstroms)
 Number     Number       Type             X           Y           Z
 ---------------------------------------------------------------------
      1          6           0       -2.313988   -1.158917    0.582652
      2          6           0       -1.316078   -0.418089   -0.314552
      3          6           0       -1.587146    1.067026   -0.459161
      4          6           0       -0.487917    1.810113   -0.352697
      5          6           0        0.745553    0.963423   -0.173321
      6          8           0        1.627462    1.493952    0.799689
      7          6           0        0.144629   -0.408634    0.218445
      8          6           0        1.012410   -1.579252   -0.159842
      9          8           0        2.193135   -1.484963   -0.399198
     10          1           0       -2.052282   -2.217707    0.683706
     11          1           0       -2.335596   -0.718816    1.585388
     12          1           0       -3.326688   -1.107547    0.169594
     13          1           0       -1.342529   -0.886813   -1.311147
     14          1           0       -2.584911    1.444208   -0.658790
     15          1           0       -0.428508    2.888037   -0.446338
     16          1           0        1.276535    0.873408   -1.134776
     17          1           0        2.443074    0.984796    0.732082
     18          1           0        0.093015   -0.413442    1.318598
     19          1           0        0.508334   -2.572057   -0.191398
 ---------------------------------------------------------------------

 SCF Done:  E(RB3LYP) =  -423.203332946     A.U. after    1 cycles

 The electronic state is 1-A.
 Alpha  occ. eigenvalues --  -19.14831 -19.13223 -10.27770 -10.23598 -10.20669
 Alpha  occ. eigenvalues --  -10.19646 -10.18844 -10.18661 -10.18372  -1.05411
 Alpha  occ. eigenvalues --   -1.01623  -0.85545  -0.75410  -0.73510  -0.65974
 Alpha  occ. eigenvalues --   -0.61504  -0.56538  -0.53974  -0.51991  -0.50086
 Alpha  occ. eigenvalues --   -0.45983  -0.44679  -0.42929  -0.42150  -0.40827
 Alpha  occ. eigenvalues --   -0.39271  -0.37866  -0.36671  -0.34954  -0.34736
 Alpha  occ. eigenvalues --   -0.32225  -0.27403  -0.26293  -0.24507
 Alpha virt. eigenvalues --   -0.03037   0.00977   0.09024   0.10133   0.11265
 Alpha virt. eigenvalues --    0.11858   0.13721   0.14366   0.15242   0.16344
 Alpha virt. eigenvalues --    0.16757   0.17800   0.20132   0.20743   0.23425

 Mulliken charges:
               1
     1  C   -0.403606
     2  C   -0.057797
     3  C   -0.070607
     4  C   -0.102574
     5  C    0.082851
     6  O   -0.444892
     7  C   -0.103130
     8  C    0.131020
     9  O   -0.260313
    10  H    0.116735
    11  H    0.124631
    12  H    0.119212
    13  H    0.085866
    14  H    0.098470
    15  H    0.106958
    16  H    0.086380
    17  H    0.290652
    18  H    0.117148
    19  H    0.082995
 Sum of Mulliken charges =   0.00000

 Dipole moment (field-independent basis, Debye):
    X=             -2.2696    Y=             -0.8116    Z=             -0.3355  Tot=              2.4336
 Quadrupole moment (field-independent basis, Debye-Ang):
   XX=            -55.0268   YY=            -54.6010   ZZ=            -54.0553
   XY=              2.0443   XZ=              1.3240   YZ=             -2.9897

  Exact polarizability:  92.309   4.409  82.228   0.429  -0.873  56.250
 Approx polarizability: 138.852  10.797 114.717   0.337   2.391  89.525

                      1                      2                      3
                      A                      A                      A
 Frequencies --     52.1356                88.6636               152.0358
 Red. masses --      4.8810                 2.9131                 4.9678
 Frc consts  --      0.0078                 0.0135                 0.0677
 IR Inten    --      4.2892                 3.5467                 4.7259

                      4                      5                      6
                      A                      A                      A
 Frequencies --    223.3627               242.1968               260.7011
 Red. masses --      1.1082                 2.8757                 2.9843
 Frc consts  --      0.0326                 0.0994                 0.1195
 IR Inten    --      0.2492                 0.4498                 2.9830

                      7                      8                      9
                      A                      A                      A
 Frequencies --    291.3299               396.3359               399.7335
 Red. masses --      2.7443                 2.8284                 1.1811
 Frc consts  --      0.1372                 0.2618                 0.1112
 IR Inten    --      1.2969                 8.2920               103.1329

                     10                     11                     12
                      A                      A                      A
 Frequencies --    467.7951               505.2244               581.6153
 Red. masses --      3.1817                 4.5636                 3.3711
 Frc consts  --      0.4102                 0.6863                 0.6719
 IR Inten    --      6.5847                 2.8129                10.2230

                     13                     14                     15
                      A                      A                      A
 Frequencies --    655.0625               741.4304               757.0984
 Red. masses --      2.8817                 3.0374                 2.1403
 Frc consts  --      0.7286                 0.9838                 0.7228
 IR Inten    --     20.7859                 4.4487                 8.6268

                     16                     17                     18
                      A                      A                      A
 Frequencies --    834.8460               889.9162               958.5376
 Red. masses --      1.6967                 2.1085                 1.5035
 Frc consts  --      0.6967                 0.9838                 0.8139
 IR Inten    --     18.8605                 1.1365                 1.7172

                     19                     20                     21
                      A                      A                      A
 Frequencies --    973.6431               987.8684              1021.7195
 Red. masses --      1.2907                 2.0877                 2.5250
 Frc consts  --      0.7209                 1.2004                 1.5530
 IR Inten    --      2.0163                 1.5632                 2.2563

                     22                     23                     24
                      A                      A                      A
 Frequencies --   1063.6423              1070.6631              1106.1845
 Red. masses --      1.8708                 2.2559                 2.0132
 Frc consts  --      1.2470                 1.5236                 1.4514
 IR Inten    --     20.2667                14.4402                14.8253

                     25                     26                     27
                      A                      A                      A
 Frequencies --   1129.6865              1146.2722              1157.5239
 Red. masses --      2.1081                 2.5932                 1.6269
 Frc consts  --      1.5851                 2.0075                 1.2843
 IR Inten    --     10.5900                64.1376                13.8727

                     28                     29                     30
                      A                      A                      A
 Frequencies --   1226.7225              1237.3984              1265.3971
 Red. masses --      1.2617                 1.2829                 1.5034
 Frc consts  --      1.1187                 1.1573                 1.4183
 IR Inten    --     74.4910                 5.3839                 3.3480

                     31                     32                     33
                      A                      A                      A
 Frequencies --   1304.5187              1338.4834              1361.7047
 Red. masses --      1.3362                 1.3562                 1.7503
 Frc consts  --      1.3397                 1.4315                 1.9122
 IR Inten    --     17.4434                 9.8174                30.4182

                     34                     35                     36
                      A                      A                      A
 Frequencies --   1372.7219              1408.2525              1419.2434
 Red. masses --      1.5216                 1.2259                 1.2400
 Frc consts  --      1.6894                 1.4324                 1.4716
 IR Inten    --      8.8644                 3.1443                 1.9664

                     37                     38                     39
                      A                      A                      A
 Frequencies --   1438.8922              1495.5054              1498.2474
 Red. masses --      1.5141                 1.0444                 1.0517
 Frc consts  --      1.8470                 1.3763                 1.3910
 IR Inten    --      7.0227                 3.5108                 2.6775

                     40                     41                     42
                      A                      A                      A
 Frequencies --   1685.4422              1808.6836              2870.4995
 Red. masses --      6.8956                10.6347                 1.0827
 Frc consts  --     11.5411                20.4976                 5.2563
 IR Inten    --      1.9975               156.1165               106.1975

                     43                     44                     45
                      A                      A                      A
 Frequencies --   2968.5499              2974.0936              2999.2599
 Red. masses --      1.0809                 1.0814                 1.0810
 Frc consts  --      5.6123                 5.6355                 5.7293
 IR Inten    --     35.1602                21.9674                11.8504

                     46                     47                     48
                      A                      A                      A
 Frequencies --   3029.4120              3098.3357              3102.7472
 Red. masses --      1.0349                 1.1014                 1.1020
 Frc consts  --      5.5958                 6.2294                 6.2506
 IR Inten    --     25.4711                24.9710                26.2704

                     49                     50                     51
                      A                      A                      A
 Frequencies --   3181.5050              3213.4155              3805.0792
 Red. masses --      1.0866                 1.1025                 1.0659
 Frc consts  --      6.4804                 6.7076                 9.0926
 IR Inten    --      7.8882                14.2814                31.1111

 - Thermochemistry -
 -------------------
 Temperature   298.150 Kelvin.  Pressure   1.00000 Atm.
 Atom     1 has atomic number  6 and mass  12.00000

 Molecular mass:   126.06808 amu.
 Principal axes and moments of inertia in atomic units:
                           1         2         3
     Eigenvalues --   868.814351167.015351805.74110
           X            0.99497   0.09992  -0.00718
           Y           -0.10007   0.99470  -0.02378
           Z            0.00477   0.02438   0.99969
 This molecule is an asymmetric top.
 Rotational symmetry number  1.
 Warning -- assumption of classical behavior for rotation
           may cause significant error
 Rotational temperatures (Kelvin)      0.09969     0.07422     0.04797
 Rotational constants (GHZ):           2.07725     1.54646     0.99945
 Zero-point vibrational energy     414262.8 (Joules/Mol)
                                   99.01119 (Kcal/Mol)
 Warning -- explicit consideration of  12 degrees of freedom as
           vibrations may cause significant error
 Vibrational temperatures:     75.01   127.57   218.75   321.37   348.47
          (Kelvin)            375.09   419.16   570.24   575.13   673.05
                              726.90   836.81   942.49  1066.75  1089.29
                             1201.16  1280.39  1379.12  1400.85  1421.32
                             1470.02  1530.34  1540.44  1591.55  1625.36
                             1649.23  1665.42  1764.98  1780.34  1820.62
                             1876.91  1925.78  1959.19  1975.04  2026.16
                             2041.97  2070.24  2151.70  2155.64  2424.97
                             2602.29  4130.00  4271.08  4279.05  4315.26
                             4358.64  4457.81  4464.16  4577.47  4623.38
                             5474.65

 Zero-point correction=                           0.157784 (Hartree/Particle)
 Thermal correction to Energy=                    0.166891
 Thermal correction to Enthalpy=                  0.167836
 Thermal correction to Gibbs Free Energy=         0.123478
 Sum of electronic and zero-point Energies=           -423.045549
 Sum of electronic and thermal Energies=              -423.036442
 Sum of electronic and thermal Enthalpies=            -423.035497
 Sum of electronic and thermal Free Energies=         -423.079854

                     E (Thermal)             CV                S
                      KCal/Mol        Cal/Mol-Kelvin    Cal/Mol-Kelvin
 Total                  104.726             33.656             93.357
 Electronic               0.000              0.000              0.000
 Translational            0.889              2.981             40.409
 Rotational               0.889              2.981             28.995
 Vibrational            102.948             27.694             23.954
 Vibration     1          0.596              1.977              4.735
 Vibration     2          0.601              1.957              3.689
 Vibration     3          0.619              1.900              2.647
 Vibration     4          0.649              1.805              1.932
 Vibration     5          0.658              1.776              1.787
 Vibration     6          0.669              1.745              1.657
 Vibration     7          0.687              1.690              1.466
 Vibration     8          0.763              1.478              0.976
 Vibration     9          0.766              1.471              0.964
 Vibration    10          0.825              1.321              0.744
 Vibration    11          0.860              1.238              0.645
 Vibration    12          0.938              1.071              0.482

 Normal termination of Gaussian 09 at Tue Jan 28 00:54:14 2020.
