 Gaussian 09, Revision D.01,
 Gaussian 09:  ES64L-G09RevD.01 24-Apr-2013

 -----------------------------
 # b3lyp 6-31G(2df,p) opt Freq
 -----------------------------

 -----
 titel
 -----
 Symbolic Z-matrix:
 Charge =  0 Multiplicity = 1

 SCF Done:  E(RB3LYP) =  -423.145553360     A.U. after   14 cycles
 Optimization completed.
    -- Stationary point found.
 Normal termination of Gaussian 09 at Tue Jan 28 14:07:41 2020.

 ----------------------------------------------------------------------
 #N Geom=AllCheck Guess=TCheck SCRF=Check GenChk RB3LYP/6-31G(2df,p) Fr
 eq
 ----------------------------------------------------------------------

 Structure from the checkpoint file:  "/scratch/puck/g09_a071b19f-65d2-4729-aa22-a3bbe94553e7/Gau-15616.chk"
 -----
 titel
 -----
 Charge =  0 Multiplicity = 1

                         Standard orientation:
 ---------------------------------------------------------------------
 Center     Atomic      Atomic             Coordinates (Angstroms)
 Number     Number       Type             X           Y           Z
 ---------------------------------------------------------------------
      1          6           0       -3.220902   -1.123979    0.173910
      2          6           0       -2.540225    0.159066   -0.317341
      3          6           0       -1.190967    0.400748    0.331075
      4          6           0       -0.171755    1.189275   -0.425348
      5          8           0        0.973121    1.466691    0.390792
      6          6           0        1.265859    0.048215    0.498999
      7          6           0        2.538657   -0.293633   -0.252976
      8          8           0        3.177703   -1.293507   -0.057358
      9          6           0        0.002069   -0.308853   -0.291171
     10          1           0       -2.609999   -2.005605   -0.045006
     11          1           0       -3.381482   -1.093221    1.256802
     12          1           0       -4.195357   -1.260917   -0.304410
     13          1           0       -2.417405    0.117021   -1.407541
     14          1           0       -3.188860    1.021027   -0.117174
     15          1           0       -1.204777    0.522267    1.413543
     16          1           0       -0.366883    1.843161   -1.267682
     17          1           0        1.331990   -0.302647    1.534827
     18          1           0        2.817852    0.459759   -1.022793
     19          1           0       -0.088092   -1.111356   -1.010923
 ---------------------------------------------------------------------

 SCF Done:  E(RB3LYP) =  -423.145553360     A.U. after    1 cycles

 The electronic state is 1-A.
 Alpha  occ. eigenvalues --  -19.15379 -19.14756 -10.27450 -10.25145 -10.25008
 Alpha  occ. eigenvalues --  -10.21094 -10.20499 -10.19807 -10.18307  -1.06919
 Alpha  occ. eigenvalues --   -1.05175  -0.85582  -0.76603  -0.73846  -0.64705
 Alpha  occ. eigenvalues --   -0.61074  -0.58213  -0.55590  -0.51883  -0.50497
 Alpha  occ. eigenvalues --   -0.46942  -0.45531  -0.44175  -0.43069  -0.40935
 Alpha  occ. eigenvalues --   -0.39895  -0.38407  -0.36024  -0.35211  -0.34693
 Alpha  occ. eigenvalues --   -0.32757  -0.29073  -0.26793  -0.24010
 Alpha virt. eigenvalues --   -0.03422   0.07346   0.08809   0.09999   0.11368
 Alpha virt. eigenvalues --    0.12312   0.13640   0.14081   0.15069   0.15746
 Alpha virt. eigenvalues --    0.16559   0.17197   0.18253   0.20234   0.21013

 Mulliken charges:
               1
     1  C   -0.371521
     2  C   -0.219636
     3  C   -0.035042
     4  C    0.074307
     5  O   -0.301936
     6  C    0.012603
     7  C    0.141883
     8  O   -0.241130
     9  C   -0.137720
    10  H    0.121236
    11  H    0.120048
    12  H    0.116062
    13  H    0.098122
    14  H    0.107615
    15  H    0.093602
    16  H    0.109737
    17  H    0.108599
    18  H    0.091238
    19  H    0.111931
 Sum of Mulliken charges =   0.00000

 Dipole moment (field-independent basis, Debye):
    X=             -2.8991    Y=              0.5325    Z=             -0.8512  Tot=              3.0680
 Quadrupole moment (field-independent basis, Debye-Ang):
   XX=            -59.1804   YY=            -57.9810   ZZ=            -51.0563
   XY=              3.6615   XZ=             -0.2310   YZ=             -1.4311

  Exact polarizability:  96.051  -3.761  70.907  -0.618  -3.797  63.964
 Approx polarizability: 118.920 -10.311 115.014   0.746  -4.967  98.142

                      1                      2                      3
                      A                      A                      A
 Frequencies --     50.9783                86.8941               129.3431
 Red. masses --      4.8385                 2.4243                 2.9642
 Frc consts  --      0.0074                 0.0108                 0.0292
 IR Inten    --      7.7157                 0.6246                 1.1505

                      4                      5                      6
                      A                      A                      A
 Frequencies --    153.9832               200.2924               237.3901
 Red. masses --      2.3523                 1.8417                 1.6508
 Frc consts  --      0.0329                 0.0435                 0.0548
 IR Inten    --      2.1053                 0.7470                 1.8961

                      7                      8                      9
                      A                      A                      A
 Frequencies --    329.4245               370.7390               432.0470
 Red. masses --      2.5368                 3.7351                 3.9682
 Frc consts  --      0.1622                 0.3025                 0.4364
 IR Inten    --      1.0715                 0.9327                16.6902

                     10                     11                     12
                      A                      A                      A
 Frequencies --    463.6447               522.9942               754.0073
 Red. masses --      3.1066                 5.3590                 1.4457
 Frc consts  --      0.3935                 0.8636                 0.4843
 IR Inten    --     12.3874                 1.3198                 4.5950

                     13                     14                     15
                      A                      A                      A
 Frequencies --    803.8592               822.4650               882.9423
 Red. masses --      2.5457                 1.5382                 1.8581
 Frc consts  --      0.9692                 0.6130                 0.8535
 IR Inten    --     18.9022                 1.1959                 4.6427

                     16                     17                     18
                      A                      A                      A
 Frequencies --    904.1475               941.9262               966.8976
 Red. masses --      2.7668                 3.0177                 2.0917
 Frc consts  --      1.3326                 1.5775                 1.1522
 IR Inten    --      4.5191                 1.1027                 8.5233

                     19                     20                     21
                      A                      A                      A
 Frequencies --    985.9133              1004.4961              1035.0560
 Red. masses --      2.8489                 2.1942                 1.5193
 Frc consts  --      1.6315                 1.3045                 0.9590
 IR Inten    --     38.3100                62.1387                 2.0511

                     22                     23                     24
                      A                      A                      A
 Frequencies --   1050.9098              1063.0312              1076.8865
 Red. masses --      1.9917                 2.1244                 2.0910
 Frc consts  --      1.2960                 1.4144                 1.4287
 IR Inten    --     12.1744                 5.5257                23.3313

                     25                     26                     27
                      A                      A                      A
 Frequencies --   1103.9308              1132.1077              1138.4625
 Red. masses --      2.1823                 1.8125                 1.9257
 Frc consts  --      1.5670                 1.3687                 1.4706
 IR Inten    --      6.7640                 4.1575                 2.3022

                     28                     29                     30
                      A                      A                      A
 Frequencies --   1205.6234              1211.8614              1255.7395
 Red. masses --      1.3199                 2.1178                 1.5446
 Frc consts  --      1.1304                 1.8325                 1.4350
 IR Inten    --      0.7325                 5.8577                 6.9631

                     31                     32                     33
                      A                      A                      A
 Frequencies --   1271.2614              1295.4759              1314.7311
 Red. masses --      1.4178                 1.3618                 1.2596
 Frc consts  --      1.3500                 1.3466                 1.2828
 IR Inten    --      7.4652                 8.6120                 6.7000

                     34                     35                     36
                      A                      A                      A
 Frequencies --   1362.6272              1397.3551              1412.1571
 Red. masses --      1.4908                 1.2497                 1.2474
 Frc consts  --      1.6309                 1.4377                 1.4656
 IR Inten    --      4.6365                 3.6307                 2.3866

                     37                     38                     39
                      A                      A                      A
 Frequencies --   1428.1844              1485.7462              1497.3606
 Red. masses --      2.3257                 1.0611                 1.0399
 Frc consts  --      2.7950                 1.3800                 1.3738
 IR Inten    --      6.9268                 1.0167                 5.6974

                     40                     41                     42
                      A                      A                      A
 Frequencies --   1506.6395              1834.3186              2892.8944
 Red. masses --      1.0733                10.6554                 1.0845
 Frc consts  --      1.4355                21.1238                 5.3477
 IR Inten    --      2.4576               170.2207                83.5895

                     43                     44                     45
                      A                      A                      A
 Frequencies --   3019.5414              3035.8781              3051.4836
 Red. masses --      1.0598                 1.0350                 1.1012
 Frc consts  --      5.6933                 5.6205                 6.0412
 IR Inten    --     24.5931                24.1662                13.6126

                     46                     47                     48
                      A                      A                      A
 Frequencies --   3057.2965              3104.0176              3109.3599
 Red. masses --      1.0853                 1.1012                 1.1017
 Frc consts  --      5.9767                 6.2515                 6.2756
 IR Inten    --     29.7109                22.3351                34.0925

                     49                     50                     51
                      A                      A                      A
 Frequencies --   3115.9138              3179.1833              3204.6284
 Red. masses --      1.0892                 1.0912                 1.0958
 Frc consts  --      6.2305                 6.4978                 6.6305
 IR Inten    --     27.4573                16.1100                 5.0577

 - Thermochemistry -
 -------------------
 Temperature   298.150 Kelvin.  Pressure   1.00000 Atm.
 Atom     1 has atomic number  6 and mass  12.00000

 Molecular mass:   126.06808 amu.
 Principal axes and moments of inertia in atomic units:
                           1         2         3
     Eigenvalues --   481.200482067.961012377.53304
           X            0.99972   0.02347  -0.00239
           Y           -0.02353   0.99928  -0.02971
           Z            0.00169   0.02975   0.99956
 This molecule is an asymmetric top.
 Rotational symmetry number  1.
 Warning -- assumption of classical behavior for rotation
           may cause significant error
 Rotational temperatures (Kelvin)      0.18000     0.04188     0.03643
 Rotational constants (GHZ):           3.75050     0.87272     0.75908
 Zero-point vibrational energy     412077.9 (Joules/Mol)
                                   98.48899 (Kcal/Mol)
 Warning -- explicit consideration of  11 degrees of freedom as
           vibrations may cause significant error
 Vibrational temperatures:     73.35   125.02   186.10   221.55   288.18
          (Kelvin)            341.55   473.97   533.41   621.62   667.08
                              752.47  1084.85  1156.57  1183.34  1270.36
                             1300.86  1355.22  1391.15  1418.51  1445.24
                             1489.21  1512.02  1529.46  1549.40  1588.31
                             1628.85  1637.99  1734.62  1743.60  1806.73
                             1829.06  1863.90  1891.60  1960.51  2010.48
                             2031.78  2054.84  2137.65  2154.37  2167.72
                             2639.17  4162.22  4344.44  4367.95  4390.40
                             4398.76  4465.98  4473.67  4483.10  4574.13
                             4610.74

 Zero-point correction=                           0.156952 (Hartree/Particle)
 Thermal correction to Energy=                    0.166051
 Thermal correction to Enthalpy=                  0.166995
 Thermal correction to Gibbs Free Energy=         0.122158
 Sum of electronic and zero-point Energies=           -422.988601
 Sum of electronic and thermal Energies=              -422.979503
 Sum of electronic and thermal Enthalpies=            -422.978559
 Sum of electronic and thermal Free Energies=         -423.023395

                     E (Thermal)             CV                S
                      KCal/Mol        Cal/Mol-Kelvin    Cal/Mol-Kelvin
 Total                  104.198             32.810             94.367
 Electronic               0.000              0.000              0.000
 Translational            0.889              2.981             40.409
 Rotational               0.889              2.981             29.249
 Vibrational            102.421             26.849             24.709
 Vibration     1          0.595              1.977              4.779
 Vibration     2          0.601              1.958              3.729
 Vibration     3          0.612              1.924              2.956
 Vibration     4          0.620              1.898              2.622
 Vibration     5          0.638              1.839              2.130
 Vibration     6          0.656              1.783              1.822
 Vibration     7          0.712              1.617              1.263
 Vibration     8          0.743              1.532              1.077
 Vibration     9          0.793              1.400              0.852
 Vibration    10          0.821              1.331              0.756
 Vibration    11          0.878              1.199              0.603

 Optimization completed.
    -- Stationary point found.
 Normal termination of Gaussian 09 at Tue Jan 28 15:25:22 2020.
