 Gaussian 09, Revision D.01,
 Gaussian 09:  ES64L-G09RevD.01 24-Apr-2013

 -----------------------------
 # b3lyp 6-31G(2df,p) opt Freq
 -----------------------------

 -----
 titel
 -----
 Symbolic Z-matrix:
 Charge =  0 Multiplicity = 1

 SCF Done:  E(RB3LYP) =  -423.224459574     A.U. after   14 cycles
 Optimization completed.
    -- Stationary point found.
 Normal termination of Gaussian 09 at Mon Jan 27 10:18:15 2020.

 ----------------------------------------------------------------------
 #N Geom=AllCheck Guess=TCheck SCRF=Check GenChk RB3LYP/6-31G(2df,p) Fr
 eq
 ----------------------------------------------------------------------

 Structure from the checkpoint file:  "/scratch/puck/g09_10b5862a-c8e9-401f-97ae-4176b875bd74/Gau-91832.chk"
 -----
 titel
 -----
 Charge =  0 Multiplicity = 1

                         Standard orientation:
 ---------------------------------------------------------------------
 Center     Atomic      Atomic             Coordinates (Angstroms)
 Number     Number       Type             X           Y           Z
 ---------------------------------------------------------------------
      1          6           0        2.956508   -0.835880    0.086917
      2          6           0        1.633070   -0.162316    0.017987
      3          6           0        1.231185    1.128315    0.166781
      4          6           0       -0.194644    1.149220   -0.017942
      5          6           0       -1.078244    2.357133    0.051452
      6          6           0       -0.553373   -0.144392   -0.271172
      7          6           0       -1.856968   -0.817765   -0.511419
      8          8           0       -2.312707   -1.602407    0.590153
      9          8           0        0.557198   -0.949527   -0.249845
     10          1           0        3.735658   -0.104078    0.310799
     11          1           0        2.973361   -1.606365    0.866033
     12          1           0        3.206864   -1.326074   -0.860796
     13          1           0        1.868718    1.972941    0.381461
     14          1           0       -1.014298    2.842388    1.032310
     15          1           0       -0.787479    3.106486   -0.693733
     16          1           0       -2.127200    2.105528   -0.125543
     17          1           0       -2.598335   -0.056697   -0.795228
     18          1           0       -1.772429   -1.520153   -1.347066
     19          1           0       -2.266002   -1.044392    1.373673
 ---------------------------------------------------------------------

 SCF Done:  E(RB3LYP) =  -423.224459574     A.U. after    1 cycles

 The electronic state is 1-A.
 Alpha  occ. eigenvalues --  -19.19038 -19.12929 -10.23105 -10.23037 -10.21823
 Alpha  occ. eigenvalues --  -10.19023 -10.18684 -10.18489 -10.17022  -1.09580
 Alpha  occ. eigenvalues --   -1.00892  -0.80588  -0.78311  -0.71689  -0.70649
 Alpha  occ. eigenvalues --   -0.63858  -0.58138  -0.53515  -0.50995  -0.46957
 Alpha  occ. eigenvalues --   -0.45847  -0.43514  -0.42773  -0.41671  -0.41253
 Alpha  occ. eigenvalues --   -0.39843  -0.39018  -0.38515  -0.36870  -0.35334
 Alpha  occ. eigenvalues --   -0.32649  -0.26869  -0.26034  -0.20959
 Alpha virt. eigenvalues --    0.01447   0.06870   0.08998   0.10988   0.11675
 Alpha virt. eigenvalues --    0.13130   0.13833   0.15677   0.16586   0.17892
 Alpha virt. eigenvalues --    0.18402   0.18627   0.21215   0.22584   0.23162

 Mulliken charges:
               1
     1  C   -0.491311
     2  C    0.361093
     3  C   -0.364492
     4  C    0.182299
     5  C   -0.506940
     6  C    0.211513
     7  C   -0.170239
     8  O   -0.412722
     9  O   -0.208612
    10  H    0.133940
    11  H    0.140051
    12  H    0.138975
    13  H    0.102892
    14  H    0.129513
    15  H    0.132204
    16  H    0.124537
    17  H    0.097057
    18  H    0.122729
    19  H    0.277512
 Sum of Mulliken charges =   0.00000

 Dipole moment (field-independent basis, Debye):
    X=              1.0265    Y=              2.0032    Z=              0.2776  Tot=              2.2679
 Quadrupole moment (field-independent basis, Debye-Ang):
   XX=            -50.2014   YY=            -55.3881   ZZ=            -51.6417
   XY=             -4.4327   XZ=              0.3047   YZ=              1.3225

  Exact polarizability:  99.704  -2.871  88.504   2.802   3.612  55.852
 Approx polarizability: 134.024   0.624 139.545   4.260   7.832  85.888

                      1                      2                      3
                      A                      A                      A
 Frequencies --     59.6395               119.8206               123.9355
 Red. masses --      3.0980                 1.6426                 1.0954
 Frc consts  --      0.0065                 0.0139                 0.0099
 IR Inten    --      1.2078                 0.2782                 0.0690

                      4                      5                      6
                      A                      A                      A
 Frequencies --    134.5661               190.2955               241.8681
 Red. masses --      1.7357                 2.7171                 1.8767
 Frc consts  --      0.0185                 0.0580                 0.0647
 IR Inten    --      0.3716                 2.2253                18.7768

                      7                      8                      9
                      A                      A                      A
 Frequencies --    253.6152               293.6341               324.2963
 Red. masses --      2.4918                 2.5173                 1.5856
 Frc consts  --      0.0944                 0.1279                 0.0983
 IR Inten    --      3.9010                16.3884                75.9812

                     10                     11                     12
                      A                      A                      A
 Frequencies --    408.2426               471.8225               586.9523
 Red. masses --      3.5791                 3.0739                 4.0669
 Frc consts  --      0.3514                 0.4032                 0.8255
 IR Inten    --      1.8763                 8.6775                 1.2702

                     13                     14                     15
                      A                      A                      A
 Frequencies --    630.5891               647.0368               710.6973
 Red. masses --      4.8539                 3.9864                 4.8325
 Frc consts  --      1.1372                 0.9833                 1.4381
 IR Inten    --      6.3151                 0.6478                 2.5555

                     16                     17                     18
                      A                      A                      A
 Frequencies --    794.3037               802.9978               929.5112
 Red. masses --      1.7884                 1.9914                 1.9098
 Frc consts  --      0.6648                 0.7566                 0.9722
 IR Inten    --      6.0764                21.7542                11.2738

                     19                     20                     21
                      A                      A                      A
 Frequencies --    985.1399              1013.3204              1020.8320
 Red. masses --      1.5663                 4.0916                 1.5842
 Frc consts  --      0.8956                 2.4753                 0.9727
 IR Inten    --      8.4383                55.2259                12.4032

                     22                     23                     24
                      A                      A                      A
 Frequencies --   1030.7360              1061.9873              1064.1724
 Red. masses --      5.8610                 1.4703                 1.4863
 Frc consts  --      3.6687                 0.9770                 0.9917
 IR Inten    --     78.7275                 2.4032                 2.9657

                     25                     26                     27
                      A                      A                      A
 Frequencies --   1132.8016              1174.0203              1217.8326
 Red. masses --      3.0528                 1.4687                 1.4258
 Frc consts  --      2.3081                 1.1927                 1.2459
 IR Inten    --     16.1328                 5.6989                14.1755

                     28                     29                     30
                      A                      A                      A
 Frequencies --   1254.1849              1291.9269              1358.3679
 Red. masses --      4.2757                 3.6768                 1.2478
 Frc consts  --      3.9626                 3.6157                 1.3565
 IR Inten    --      6.1679                 9.6856                 4.5308

                     31                     32                     33
                      A                      A                      A
 Frequencies --   1402.7070              1414.4653              1424.0307
 Red. masses --      1.7023                 1.2673                 1.2804
 Frc consts  --      1.9734                 1.4938                 1.5298
 IR Inten    --      8.9644                 8.0317                22.6357

                     34                     35                     36
                      A                      A                      A
 Frequencies --   1431.7090              1472.9228              1483.0713
 Red. masses --      2.1232                 1.0427                 1.0439
 Frc consts  --      2.5642                 1.3328                 1.3528
 IR Inten    --     60.1475                 5.3765                 3.5337

                     37                     38                     39
                      A                      A                      A
 Frequencies --   1488.9509              1491.6593              1500.6520
 Red. masses --      1.0848                 1.1193                 1.1043
 Frc consts  --      1.4170                 1.4674                 1.4653
 IR Inten    --      0.2735                 3.4853                 5.4832

                     40                     41                     42
                      A                      A                      A
 Frequencies --   1607.6770              1672.3074              3000.1617
 Red. masses --      6.9436                 6.9100                 1.0680
 Frc consts  --     10.5738                11.3857                 5.6637
 IR Inten    --     25.2223                10.0354                48.7669

                     43                     44                     45
                      A                      A                      A
 Frequencies --   3028.5679              3031.5369              3075.1549
 Red. masses --      1.0380                 1.0380                 1.0935
 Frc consts  --      5.6097                 5.6207                 6.0925
 IR Inten    --     44.5518                24.2003                22.2314

                     46                     47                     48
                      A                      A                      A
 Frequencies --   3076.7880              3082.0350              3112.5652
 Red. masses --      1.0997                 1.1001                 1.0985
 Frc consts  --      6.1339                 6.1567                 6.2703
 IR Inten    --     18.7617                14.4275                18.7865

                     49                     50                     51
                      A                      A                      A
 Frequencies --   3130.3805              3244.3772              3809.1986
 Red. masses --      1.0986                 1.0967                 1.0662
 Frc consts  --      6.3426                 6.8016                 9.1148
 IR Inten    --     10.1220                 4.7204                12.6588

 - Thermochemistry -
 -------------------
 Temperature   298.150 Kelvin.  Pressure   1.00000 Atm.
 Atom     1 has atomic number  6 and mass  12.00000

 Molecular mass:   126.06808 amu.
 Principal axes and moments of inertia in atomic units:
                           1         2         3
     Eigenvalues --   793.707391366.496212026.58735
           X            0.99793  -0.06382   0.00778
           Y            0.06375   0.99793   0.00837
           Z           -0.00830  -0.00786   0.99993
 This molecule is an asymmetric top.
 Rotational symmetry number  1.
 Warning -- assumption of classical behavior for rotation
           may cause significant error
 Rotational temperatures (Kelvin)      0.10913     0.06338     0.04274
 Rotational constants (GHZ):           2.27381     1.32071     0.89053
 Zero-point vibrational energy     414566.2 (Joules/Mol)
                                   99.08371 (Kcal/Mol)
 Warning -- explicit consideration of  12 degrees of freedom as
           vibrations may cause significant error
 Vibrational temperatures:     85.81   172.39   178.32   193.61   273.79
          (Kelvin)            347.99   364.90   422.47   466.59   587.37
                              678.85   844.49   907.28   930.94  1022.53
                             1142.82  1155.33  1337.36  1417.39  1457.94
                             1468.75  1483.00  1527.96  1531.10  1629.85
                             1689.15  1752.19  1804.49  1858.79  1954.39
                             2018.18  2035.10  2048.86  2059.91  2119.20
                             2133.81  2142.27  2146.16  2159.10  2313.09
                             2406.07  4316.56  4357.43  4361.70  4424.46
                             4426.81  4434.36  4478.28  4503.91  4667.93
                             5480.58

 Zero-point correction=                           0.157900 (Hartree/Particle)
 Thermal correction to Energy=                    0.167635
 Thermal correction to Enthalpy=                  0.168580
 Thermal correction to Gibbs Free Energy=         0.122896
 Sum of electronic and zero-point Energies=           -423.066560
 Sum of electronic and thermal Energies=              -423.056824
 Sum of electronic and thermal Enthalpies=            -423.055880
 Sum of electronic and thermal Free Energies=         -423.101563

                     E (Thermal)             CV                S
                      KCal/Mol        Cal/Mol-Kelvin    Cal/Mol-Kelvin
 Total                  105.193             34.796             96.149
 Electronic               0.000              0.000              0.000
 Translational            0.889              2.981             40.409
 Rotational               0.889              2.981             29.176
 Vibrational            103.415             28.835             26.564
 Vibration     1          0.597              1.974              4.469
 Vibration     2          0.609              1.933              3.103
 Vibration     3          0.610              1.929              3.038
 Vibration     4          0.613              1.919              2.880
 Vibration     5          0.634              1.853              2.225
 Vibration     6          0.658              1.776              1.789
 Vibration     7          0.665              1.757              1.705
 Vibration     8          0.688              1.686              1.453
 Vibration     9          0.709              1.627              1.288
 Vibration    10          0.773              1.452              0.933
 Vibration    11          0.829              1.313              0.732
 Vibration    12          0.944              1.060              0.473

 Optimization completed.
    -- Stationary point found.
 Normal termination of Gaussian 09 at Mon Jan 27 10:56:53 2020.
