 Gaussian 09, Revision D.01,
 Gaussian 09:  ES64L-G09RevD.01 24-Apr-2013

 -----------------------------
 # b3lyp 6-31G(2df,p) opt Freq
 -----------------------------

 -----
 titel
 -----
 Symbolic Z-matrix:
 Charge =  0 Multiplicity = 1

 SCF Done:  E(RB3LYP) =  -423.171584986     A.U. after   13 cycles
 Optimization completed.
    -- Stationary point found.
 Normal termination of Gaussian 09 at Mon Jan 27 11:54:44 2020.

 ----------------------------------------------------------------------
 #N Geom=AllCheck Guess=TCheck SCRF=Check GenChk RB3LYP/6-31G(2df,p) Fr
 eq
 ----------------------------------------------------------------------

 Structure from the checkpoint file:  "/scratch/puck/g09_92dc2eba-e908-4347-91c5-3448aeda1129/Gau-96402.chk"
 -----
 titel
 -----
 Charge =  0 Multiplicity = 1

                         Standard orientation:
 ---------------------------------------------------------------------
 Center     Atomic      Atomic             Coordinates (Angstroms)
 Number     Number       Type             X           Y           Z
 ---------------------------------------------------------------------
      1          6           0       -1.983495    0.825948   -0.466410
      2          6           0       -2.283427   -0.438738    0.329673
      3          6           0       -0.875542   -0.059346   -0.006860
      4          8           0       -0.170264   -0.840940   -0.977099
      5          6           0        1.196317   -0.835834   -0.531650
      6          6           0        1.729382    0.595608   -0.689358
      7          8           0        1.049354    1.313097    0.362371
      8          6           0        0.194402    0.345191    0.992977
      9          6           0        1.060395   -0.924760    0.997891
     10          1           0       -2.215190    0.810096   -1.525463
     11          1           0       -2.108546    1.790577    0.014184
     12          1           0       -2.625011   -0.342175    1.355428
     13          1           0       -2.702317   -1.278865   -0.213364
     14          1           0        1.743963   -1.614547   -1.060520
     15          1           0        2.815258    0.668737   -0.546416
     16          1           0        1.461589    1.011992   -1.666084
     17          1           0       -0.163116    0.750745    1.938223
     18          1           0        1.996581   -0.796839    1.543964
     19          1           0        0.535879   -1.825393    1.320292
 ---------------------------------------------------------------------

 SCF Done:  E(RB3LYP) =  -423.171584986     A.U. after    1 cycles

 The electronic state is 1-A.
 Alpha  occ. eigenvalues --  -19.14054 -19.13537 -10.23857 -10.23695 -10.23379
 Alpha  occ. eigenvalues --  -10.22374 -10.18671 -10.18318 -10.18118  -1.06178
 Alpha  occ. eigenvalues --   -1.00812  -0.85108  -0.77352  -0.73623  -0.62371
 Alpha  occ. eigenvalues --   -0.60888  -0.60010  -0.54043  -0.51982  -0.51223
 Alpha  occ. eigenvalues --   -0.46266  -0.45832  -0.44660  -0.40785  -0.38022
 Alpha  occ. eigenvalues --   -0.37630  -0.37291  -0.36585  -0.34781  -0.33063
 Alpha  occ. eigenvalues --   -0.31667  -0.29849  -0.24762  -0.22680
 Alpha virt. eigenvalues --    0.08990   0.10564   0.10812   0.11342   0.13068
 Alpha virt. eigenvalues --    0.13975   0.14775   0.16037   0.16236   0.17377
 Alpha virt. eigenvalues --    0.18068   0.18552   0.19535   0.20664   0.22422

 Mulliken charges:
               1
     1  C   -0.338905
     2  C   -0.348980
     3  C    0.494012
     4  O   -0.325770
     5  C    0.068122
     6  C   -0.081220
     7  O   -0.280051
     8  C   -0.011667
     9  C   -0.247323
    10  H    0.122896
    11  H    0.119214
    12  H    0.111517
    13  H    0.122552
    14  H    0.085476
    15  H    0.097429
    16  H    0.110147
    17  H    0.082314
    18  H    0.106744
    19  H    0.113494
 Sum of Mulliken charges =   0.00000

 Dipole moment (field-independent basis, Debye):
    X=              0.4267    Y=             -0.8752    Z=              0.7518  Tot=              1.2302
 Quadrupole moment (field-independent basis, Debye-Ang):
   XX=            -50.2917   YY=            -55.5128   ZZ=            -51.7050
   XY=             -2.7189   XZ=             -2.0925   YZ=             -1.5076

  Exact polarizability:  86.470  -1.516  68.033  -2.724  -2.734  69.173
 Approx polarizability: 113.408  -0.563 103.921  -3.633  -0.809 104.282

                      1                      2                      3
                      A                      A                      A
 Frequencies --    113.1466               226.1063               271.5500
 Red. masses --      3.5696                 2.6187                 2.6458
 Frc consts  --      0.0269                 0.0789                 0.1150
 IR Inten    --      1.6658                 2.5768                 0.5175

                      4                      5                      6
                      A                      A                      A
 Frequencies --    328.2480               428.0756               462.4632
 Red. masses --      2.3929                 3.2105                 3.0255
 Frc consts  --      0.1519                 0.3466                 0.3812
 IR Inten    --      3.4197                 4.7014                 1.8548

                      7                      8                      9
                      A                      A                      A
 Frequencies --    506.6786               553.2839               677.8466
 Red. masses --      2.5221                 4.0835                 4.5408
 Frc consts  --      0.3815                 0.7365                 1.2293
 IR Inten    --      1.8336                 0.6212                 3.2969

                     10                     11                     12
                      A                      A                      A
 Frequencies --    760.6752               806.3922               825.4052
 Red. masses --      1.0578                 3.6001                 3.5303
 Frc consts  --      0.3606                 1.3793                 1.4171
 IR Inten    --      1.9886                 4.2722                11.0369

                     13                     14                     15
                      A                      A                      A
 Frequencies --    850.9710               883.2435               902.8496
 Red. masses --      2.2752                 1.7183                 1.9719
 Frc consts  --      0.9707                 0.7898                 0.9470
 IR Inten    --      7.0631                11.7352                14.1539

                     16                     17                     18
                      A                      A                      A
 Frequencies --    923.4375               932.4100               957.5744
 Red. masses --      2.1418                 2.5005                 2.0412
 Frc consts  --      1.0761                 1.2808                 1.1028
 IR Inten    --     12.1140                24.7089                21.9939

                     19                     20                     21
                      A                      A                      A
 Frequencies --    971.3985               981.6026               995.2819
 Red. masses --      2.3387                 3.0052                 3.9496
 Frc consts  --      1.3002                 1.7061                 2.3051
 IR Inten    --     27.8310                11.8522                31.1154

                     22                     23                     24
                      A                      A                      A
 Frequencies --   1013.7027              1049.4584              1065.7605
 Red. masses --      2.3347                 1.5743                 2.4168
 Frc consts  --      1.4135                 1.0216                 1.6174
 IR Inten    --     16.9746                 8.3354                32.9849

                     25                     26                     27
                      A                      A                      A
 Frequencies --   1068.4251              1082.7173              1136.1306
 Red. masses --      1.4805                 2.0921                 1.3947
 Frc consts  --      0.9958                 1.4450                 1.0607
 IR Inten    --      0.4214                55.8731                14.7804

                     28                     29                     30
                      A                      A                      A
 Frequencies --   1185.2811              1186.2397              1215.3424
 Red. masses --      1.2727                 1.8044                 1.2749
 Frc consts  --      1.0535                 1.4960                 1.1095
 IR Inten    --      0.2492                49.4925                 5.7364

                     31                     32                     33
                      A                      A                      A
 Frequencies --   1234.0467              1269.8969              1285.9938
 Red. masses --      1.7674                 1.6155                 1.4668
 Frc consts  --      1.5858                 1.5349                 1.4292
 IR Inten    --     29.7571                11.0193                 4.0688

                     34                     35                     36
                      A                      A                      A
 Frequencies --   1299.1835              1344.2616              1366.6389
 Red. masses --      1.5579                 1.5158                 1.5246
 Frc consts  --      1.5493                 1.6138                 1.6777
 IR Inten    --      6.1458                 3.2261                 0.8038

                     37                     38                     39
                      A                      A                      A
 Frequencies --   1396.9592              1451.7677              1480.6346
 Red. masses --      1.9065                 1.0901                 1.1254
 Frc consts  --      2.1920                 1.3537                 1.4536
 IR Inten    --      1.3369                 1.7970                 4.2330

                     40                     41                     42
                      A                      A                      A
 Frequencies --   1502.9544              1513.3196              3017.5284
 Red. masses --      1.7080                 1.0951                 1.0610
 Frc consts  --      2.2732                 1.4776                 5.6920
 IR Inten    --     12.7695                 0.4271                69.2033

                     43                     44                     45
                      A                      A                      A
 Frequencies --   3074.3365              3083.4069              3127.2572
 Red. masses --      1.1042                 1.0582                 1.0533
 Frc consts  --      6.1492                 5.9274                 6.0692
 IR Inten    --     25.0620                18.5676                10.5112

                     46                     47                     48
                      A                      A                      A
 Frequencies --   3132.8031              3134.9882              3139.7281
 Red. masses --      1.0583                 1.0862                 1.0918
 Frc consts  --      6.1198                 6.2899                 6.3412
 IR Inten    --      5.9204                51.5375                 5.2323

                     49                     50                     51
                      A                      A                      A
 Frequencies --   3147.3556              3212.8400              3227.4833
 Red. masses --      1.1098                 1.1180                 1.1154
 Frc consts  --      6.4770                 6.7995                 6.8458
 IR Inten    --     15.9756                 0.6092                 9.3117

 - Thermochemistry -
 -------------------
 Temperature   298.150 Kelvin.  Pressure   1.00000 Atm.
 Atom     1 has atomic number  6 and mass  12.00000

 Molecular mass:   126.06808 amu.
 Principal axes and moments of inertia in atomic units:
                           1         2         3
     Eigenvalues --   566.258091125.430351193.62631
           X            0.99970  -0.02335  -0.00710
           Y            0.02138   0.97824  -0.20639
           Z            0.01176   0.20618   0.97844
 This molecule is an asymmetric top.
 Rotational symmetry number  1.
 Warning -- assumption of classical behavior for rotation
           may cause significant error
 Rotational temperatures (Kelvin)      0.15296     0.07696     0.07256
 Rotational constants (GHZ):           3.18714     1.60360     1.51198
 Zero-point vibrational energy     423508.4 (Joules/Mol)
                                  101.22095 (Kcal/Mol)
 Warning -- explicit consideration of   8 degrees of freedom as
           vibrations may cause significant error
 Vibrational temperatures:    162.79   325.32   390.70   472.28   615.90
          (Kelvin)            665.38   729.00   796.05   975.27  1094.44
                             1160.22  1187.57  1224.36  1270.79  1299.00
                             1328.62  1341.53  1377.73  1397.62  1412.31
                             1431.99  1458.49  1509.93  1533.39  1537.22
                             1557.79  1634.64  1705.35  1706.73  1748.60
                             1775.52  1827.10  1850.26  1869.23  1934.09
                             1966.29  2009.91  2088.77  2130.30  2162.41
                             2177.33  4341.54  4423.28  4436.33  4499.42
                             4507.40  4510.54  4517.36  4528.34  4622.55
                             4643.62

 Zero-point correction=                           0.161306 (Hartree/Particle)
 Thermal correction to Energy=                    0.168268
 Thermal correction to Enthalpy=                  0.169213
 Thermal correction to Gibbs Free Energy=         0.130164
 Sum of electronic and zero-point Energies=           -423.010279
 Sum of electronic and thermal Energies=              -423.003316
 Sum of electronic and thermal Enthalpies=            -423.002372
 Sum of electronic and thermal Free Energies=         -423.041421

                     E (Thermal)             CV                S
                      KCal/Mol        Cal/Mol-Kelvin    Cal/Mol-Kelvin
 Total                  105.590             28.924             82.186
 Electronic               0.000              0.000              0.000
 Translational            0.889              2.981             40.409
 Rotational               0.889              2.981             28.122
 Vibrational            103.813             22.963             13.655
 Vibration     1          0.607              1.939              3.214
 Vibration     2          0.650              1.801              1.910
 Vibration     3          0.675              1.726              1.586
 Vibration     4          0.711              1.619              1.269
 Vibration     5          0.790              1.409              0.865
 Vibration     6          0.820              1.333              0.759
 Vibration     7          0.862              1.235              0.642
 Vibration     8          0.909              1.133              0.537

 Optimization completed.
    -- Stationary point found.
 Normal termination of Gaussian 09 at Mon Jan 27 12:40:00 2020.
