 Gaussian 09, Revision D.01,
 Gaussian 09:  ES64L-G09RevD.01 24-Apr-2013

 -----------------------------
 # b3lyp 6-31G(2df,p) opt Freq
 -----------------------------

 -----
 titel
 -----
 Symbolic Z-matrix:
 Charge =  0 Multiplicity = 1

 SCF Done:  E(RB3LYP) =  -423.124400872     A.U. after   14 cycles
 Optimization completed.
    -- Stationary point found.
 Normal termination of Gaussian 09 at Tue Jan 28 14:03:38 2020.

 ----------------------------------------------------------------------
 #N Geom=AllCheck Guess=TCheck SCRF=Check GenChk RB3LYP/6-31G(2df,p) Fr
 eq
 ----------------------------------------------------------------------

 Structure from the checkpoint file:  "/scratch/puck/g09_ef955659-f55b-4e2e-8896-fa593f95028a/Gau-90687.chk"
 -----
 titel
 -----
 Charge =  0 Multiplicity = 1

                         Standard orientation:
 ---------------------------------------------------------------------
 Center     Atomic      Atomic             Coordinates (Angstroms)
 Number     Number       Type             X           Y           Z
 ---------------------------------------------------------------------
      1          6           0       -2.846889    0.338158    0.134565
      2          8           0       -1.741404   -0.505047   -0.093570
      3          6           0       -0.581071    0.178750   -0.473637
      4          6           0        0.254943    0.858642    0.646678
      5          6           0        1.373247    1.513812   -0.204855
      6          6           0        1.807544    0.060554   -0.470953
      7          6           0        1.254919   -0.366678    0.906808
      8          8           0        0.679979   -1.570658    0.397284
      9          6           0        0.540340   -0.813784   -0.836754
     10          1           0       -3.097414    0.934211   -0.757655
     11          1           0       -3.696225   -0.304284    0.378612
     12          1           0       -2.678163    1.031245    0.972179
     13          1           0       -0.800142    0.887251   -1.287652
     14          1           0       -0.266019    1.387869    1.441531
     15          1           0        1.068665    2.152260   -1.039431
     16          1           0        2.122006    2.034590    0.398333
     17          1           0        2.774666   -0.246822   -0.864717
     18          1           0        1.798909   -0.455298    1.845746
     19          1           0        0.446919   -1.432113   -1.727773
 ---------------------------------------------------------------------

 SCF Done:  E(RB3LYP) =  -423.124400872     A.U. after    1 cycles

 The electronic state is 1-A.
 Alpha  occ. eigenvalues --  -19.13833 -19.13073 -10.23594 -10.23557 -10.23140
 Alpha  occ. eigenvalues --  -10.22313 -10.19512 -10.19072 -10.19006  -1.05931
 Alpha  occ. eigenvalues --   -1.02707  -0.85598  -0.73514  -0.68469  -0.66131
 Alpha  occ. eigenvalues --   -0.64404  -0.56391  -0.53479  -0.52541  -0.49843
 Alpha  occ. eigenvalues --   -0.46764  -0.45548  -0.43781  -0.41247  -0.40684
 Alpha  occ. eigenvalues --   -0.39387  -0.36242  -0.34742  -0.33518  -0.30974
 Alpha  occ. eigenvalues --   -0.30320  -0.29119  -0.26021  -0.23199
 Alpha virt. eigenvalues --    0.08021   0.09499   0.11117   0.12065   0.12445
 Alpha virt. eigenvalues --    0.13841   0.14901   0.15380   0.15951   0.16565
 Alpha virt. eigenvalues --    0.16859   0.17505   0.18406   0.20431   0.21432

 Mulliken charges:
               1
     1  C   -0.240940
     2  O   -0.251447
     3  C    0.197018
     4  C   -0.152022
     5  C   -0.258059
     6  C   -0.077347
     7  C    0.122878
     8  O   -0.277722
     9  C    0.019958
    10  H    0.101814
    11  H    0.129407
    12  H    0.105826
    13  H    0.059847
    14  H    0.071567
    15  H    0.097107
    16  H    0.104187
    17  H    0.080040
    18  H    0.085720
    19  H    0.082167
 Sum of Mulliken charges =   0.00000

 Dipole moment (field-independent basis, Debye):
    X=              0.3291    Y=              2.4803    Z=             -0.4956  Tot=              2.5507
 Quadrupole moment (field-independent basis, Debye-Ang):
   XX=            -48.9653   YY=            -57.1084   ZZ=            -50.7541
   XY=             -1.1898   XZ=              0.0670   YZ=              1.8337

  Exact polarizability:  85.160   0.210  70.337   0.382   1.232  68.298
 Approx polarizability: 109.890   0.593 110.088   0.935   0.217 106.497

                      1                      2                      3
                      A                      A                      A
 Frequencies --     93.3720               166.9895               180.9116
 Red. masses --      2.3721                 1.8824                 1.7802
 Frc consts  --      0.0122                 0.0309                 0.0343
 IR Inten    --      2.3101                 0.3343                 0.8126

                      4                      5                      6
                      A                      A                      A
 Frequencies --    287.9301               383.3344               413.4461
 Red. masses --      3.3331                 3.9977                 2.0819
 Frc consts  --      0.1628                 0.3461                 0.2097
 IR Inten    --      2.1854                 0.9224                 0.8726

                      7                      8                      9
                      A                      A                      A
 Frequencies --    500.9222               573.3682               707.0885
 Red. masses --      4.0909                 5.1133                 4.8862
 Frc consts  --      0.6048                 0.9904                 1.4393
 IR Inten    --      5.2448                 5.5731                 0.7788

                     10                     11                     12
                      A                      A                      A
 Frequencies --    747.1394               794.2836               843.4953
 Red. masses --      3.7687                 2.2816                 1.8549
 Frc consts  --      1.2395                 0.8481                 0.7776
 IR Inten    --      2.5222                 4.1065                 8.6448

                     13                     14                     15
                      A                      A                      A
 Frequencies --    850.0268               865.4583               906.2134
 Red. masses --      2.3999                 3.8378                 2.6663
 Frc consts  --      1.0217                 1.6936                 1.2901
 IR Inten    --     15.4263                16.6580                 3.9734

                     16                     17                     18
                      A                      A                      A
 Frequencies --    931.9280               957.8602               975.0159
 Red. masses --      1.9682                 3.0954                 1.9991
 Frc consts  --      1.0071                 1.6733                 1.1197
 IR Inten    --      4.1540                16.4634                 5.0395

                     19                     20                     21
                      A                      A                      A
 Frequencies --    984.3441              1019.1190              1039.2719
 Red. masses --      2.5312                 2.2914                 1.7139
 Frc consts  --      1.4450                 1.4022                 1.0907
 IR Inten    --      8.8915                41.1485                 5.0122

                     22                     23                     24
                      A                      A                      A
 Frequencies --   1065.5357              1076.9719              1107.0257
 Red. masses --      2.7574                 1.8288                 1.6009
 Frc consts  --      1.8445                 1.2498                 1.1559
 IR Inten    --      3.1909                 3.9767                17.0056

                     25                     26                     27
                      A                      A                      A
 Frequencies --   1160.7094              1167.3876              1182.1997
 Red. masses --      1.7198                 2.4081                 1.3423
 Frc consts  --      1.3651                 1.9335                 1.1053
 IR Inten    --     13.7120               100.8910                 1.0805

                     28                     29                     30
                      A                      A                      A
 Frequencies --   1185.9753              1204.4241              1209.7588
 Red. masses --      1.6313                 1.5814                 1.4513
 Frc consts  --      1.3518                 1.3516                 1.2514
 IR Inten    --     10.2104                 0.6994                14.2548

                     31                     32                     33
                      A                      A                      A
 Frequencies --   1236.8794              1245.9515              1270.0544
 Red. masses --      1.9314                 1.3597                 1.7172
 Frc consts  --      1.7409                 1.2436                 1.6319
 IR Inten    --     66.8004                 3.6594                 6.0374

                     34                     35                     36
                      A                      A                      A
 Frequencies --   1296.8331              1307.8858              1338.4603
 Red. masses --      1.7605                 1.7920                 1.5630
 Frc consts  --      1.7444                 1.8061                 1.6498
 IR Inten    --     12.4419                 0.3263                15.4549

                     37                     38                     39
                      A                      A                      A
 Frequencies --   1406.1797              1482.6497              1487.1095
 Red. masses --      1.2708                 1.1405                 1.0617
 Frc consts  --      1.4805                 1.4771                 1.3833
 IR Inten    --     34.3361                 1.5936                 3.8951

                     40                     41                     42
                      A                      A                      A
 Frequencies --   1501.2319              1509.0019              2970.8350
 Red. masses --      1.1072                 1.0703                 1.0440
 Frc consts  --      1.4701                 1.4360                 5.4290
 IR Inten    --      3.3321                 5.6921                41.8052

                     43                     44                     45
                      A                      A                      A
 Frequencies --   2982.9065              3020.5584              3050.6404
 Red. masses --      1.0775                 1.1006                 1.0573
 Frc consts  --      5.6486                 5.9164                 5.7974
 IR Inten    --     60.5871                50.3410                43.8077

                     46                     47                     48
                      A                      A                      A
 Frequencies --   3103.7996              3115.6468              3129.3139
 Red. masses --      1.1078                 1.0959                 1.0891
 Frc consts  --      6.2881                 6.2679                 6.2837
 IR Inten    --     24.8649                30.9441                12.6734

                     49                     50                     51
                      A                      A                      A
 Frequencies --   3135.6624              3141.8964              3147.4510
 Red. masses --      1.0905                 1.0891                 1.0965
 Frc consts  --      6.3175                 6.3341                 6.4000
 IR Inten    --     44.5210                70.3701                 4.9325

 - Thermochemistry -
 -------------------
 Temperature   298.150 Kelvin.  Pressure   1.00000 Atm.
 Atom     1 has atomic number  6 and mass  12.00000

 Molecular mass:   126.06808 amu.
 Principal axes and moments of inertia in atomic units:
                           1         2         3
     Eigenvalues --   545.726611201.171921419.28332
           X            0.99997  -0.00660  -0.00463
           Y            0.00671   0.99971   0.02325
           Z            0.00447  -0.02328   0.99972
 This molecule is an asymmetric top.
 Rotational symmetry number  1.
 Warning -- assumption of classical behavior for rotation
           may cause significant error
 Rotational temperatures (Kelvin)      0.15871     0.07211     0.06103
 Rotational constants (GHZ):           3.30704     1.50248     1.27159
 Zero-point vibrational energy     421459.1 (Joules/Mol)
                                  100.73113 (Kcal/Mol)
 Warning -- explicit consideration of   8 degrees of freedom as
           vibrations may cause significant error
 Vibrational temperatures:    134.34   240.26   260.29   414.27   551.53
          (Kelvin)            594.86   720.71   824.95  1017.34  1074.97
                             1142.80  1213.60  1223.00  1245.20  1303.84
                             1340.83  1378.15  1402.83  1416.25  1466.28
                             1495.28  1533.07  1549.52  1592.76  1670.00
                             1679.61  1700.92  1706.35  1732.90  1740.57
                             1779.59  1792.64  1827.32  1865.85  1881.75
                             1925.74  2023.18  2133.20  2139.62  2159.94
                             2171.11  4274.36  4291.73  4345.90  4389.19
                             4465.67  4482.72  4502.38  4511.51  4520.48
                             4528.47

 Zero-point correction=                           0.160525 (Hartree/Particle)
 Thermal correction to Energy=                    0.167822
 Thermal correction to Enthalpy=                  0.168767
 Thermal correction to Gibbs Free Energy=         0.128663
 Sum of electronic and zero-point Energies=           -422.963876
 Sum of electronic and thermal Energies=              -422.956578
 Sum of electronic and thermal Enthalpies=            -422.955634
 Sum of electronic and thermal Free Energies=         -422.995738

                     E (Thermal)             CV                S
                      KCal/Mol        Cal/Mol-Kelvin    Cal/Mol-Kelvin
 Total                  105.310             28.965             84.405
 Electronic               0.000              0.000              0.000
 Translational            0.889              2.981             40.409
 Rotational               0.889              2.981             28.322
 Vibrational            103.533             23.003             15.675
 Vibration     1          0.602              1.954              3.588
 Vibration     2          0.624              1.883              2.469
 Vibration     3          0.630              1.866              2.319
 Vibration     4          0.685              1.696              1.486
 Vibration     5          0.753              1.506              1.026
 Vibration     6          0.777              1.441              0.915
 Vibration     7          0.856              1.248              0.656
 Vibration     8          0.930              1.089              0.498

 Optimization completed.
    -- Stationary point found.
 Normal termination of Gaussian 09 at Tue Jan 28 14:51:29 2020.
