 Gaussian 09, Revision D.01,
 Gaussian 09:  ES64L-G09RevD.01 24-Apr-2013

 -----------------------------
 # b3lyp 6-31G(2df,p) opt Freq
 -----------------------------

 -----
 titel
 -----
 Symbolic Z-matrix:
 Charge =  0 Multiplicity = 1

 SCF Done:  E(RB3LYP) =  -423.187546875     A.U. after   14 cycles
 Optimization completed.
    -- Stationary point found.
 Normal termination of Gaussian 09 at Tue Jan 28 08:15:54 2020.

 ----------------------------------------------------------------------
 #N Geom=AllCheck Guess=TCheck SCRF=Check GenChk RB3LYP/6-31G(2df,p) Fr
 eq
 ----------------------------------------------------------------------

 Structure from the checkpoint file:  "/scratch/puck/g09_f62b6e83-5d80-4359-b434-149246f6d4a7/Gau-59922.chk"
 -----
 titel
 -----
 Charge =  0 Multiplicity = 1

                         Standard orientation:
 ---------------------------------------------------------------------
 Center     Atomic      Atomic             Coordinates (Angstroms)
 Number     Number       Type             X           Y           Z
 ---------------------------------------------------------------------
      1          6           0       -3.860207    0.089765   -0.000249
      2          8           0       -2.618876   -0.626377   -0.000113
      3          6           0       -1.509785    0.141883    0.000114
      4          8           0       -1.532740    1.346775    0.000274
      5          6           0       -0.262969   -0.719589    0.000160
      6          6           0        1.024688    0.102832   -0.000035
      7          6           0        2.277976   -0.794275    0.000129
      8          6           0        3.520574   -0.032006   -0.000057
      9          6           0        4.531842    0.617459   -0.000214
     10          1           0       -3.940450    0.723713   -0.886972
     11          1           0       -4.641587   -0.670279   -0.002487
     12          1           0       -3.942516    0.720408    0.888667
     13          1           0       -0.313335   -1.382902    0.872830
     14          1           0       -0.313443   -1.383221   -0.872254
     15          1           0        1.044110    0.760261   -0.873957
     16          1           0        1.044127    0.760627    0.873610
     17          1           0        2.256814   -1.455876    0.876690
     18          1           0        2.256780   -1.456245   -0.876153
     19          1           0        5.429717    1.183918   -0.000344
 ---------------------------------------------------------------------

 SCF Done:  E(RB3LYP) =  -423.187546875     A.U. after    1 cycles

 The electronic state is 1-A.
 Alpha  occ. eigenvalues --  -19.18328 -19.12668 -10.30569 -10.23835 -10.21044
 Alpha  occ. eigenvalues --  -10.20161 -10.19199 -10.17846 -10.16742  -1.10197
 Alpha  occ. eigenvalues --   -1.01424  -0.81781  -0.76788  -0.72682  -0.69146
 Alpha  occ. eigenvalues --   -0.61899  -0.55889  -0.52736  -0.50192  -0.49624
 Alpha  occ. eigenvalues --   -0.47221  -0.46958  -0.45237  -0.42428  -0.42403
 Alpha  occ. eigenvalues --   -0.38308  -0.37572  -0.36387  -0.35444  -0.34484
 Alpha  occ. eigenvalues --   -0.30218  -0.27263  -0.26179  -0.26125
 Alpha virt. eigenvalues --    0.01422   0.05466   0.06114   0.09008   0.11284
 Alpha virt. eigenvalues --    0.12679   0.13056   0.13295   0.14033   0.14770
 Alpha virt. eigenvalues --    0.15702   0.16659   0.19386   0.20632   0.21021

 Mulliken charges:
               1
     1  C   -0.239936
     2  O   -0.234093
     3  C    0.445504
     4  O   -0.353331
     5  C   -0.334993
     6  C   -0.165541
     7  C   -0.364434
     8  C    0.290250
     9  C   -0.427335
    10  H    0.140730
    11  H    0.132866
    12  H    0.140642
    13  H    0.132166
    14  H    0.132160
    15  H    0.126995
    16  H    0.127011
    17  H    0.128699
    18  H    0.128699
    19  H    0.193942
 Sum of Mulliken charges =   0.00000

 Dipole moment (field-independent basis, Debye):
    X=             -1.1826    Y=             -1.7299    Z=             -0.0003  Tot=              2.0955
 Quadrupole moment (field-independent basis, Debye-Ang):
   XX=            -46.3762   YY=            -56.1042   ZZ=            -52.2085
   XY=              2.4520   XZ=              0.0013   YZ=             -0.0013

  Exact polarizability: 111.186  10.424  70.266  -0.002   0.000  55.312
 Approx polarizability: 132.289  22.788 117.344  -0.004   0.000  84.357

                      1                      2                      3
                      A                      A                      A
 Frequencies --     20.4558                72.3217                80.5446
 Red. masses --      3.6815                 2.3192                 4.4133
 Frc consts  --      0.0009                 0.0071                 0.0169
 IR Inten    --      0.2449                 0.0041                 0.3852

                      4                      5                      6
                      A                      A                      A
 Frequencies --    101.7636               117.3985               175.4386
 Red. masses --      2.4187                 1.0837                 2.9254
 Frc consts  --      0.0148                 0.0088                 0.0531
 IR Inten    --      0.0064                 0.2445                 6.1589

                      7                      8                      9
                      A                      A                      A
 Frequencies --    185.1117               288.0636               309.4096
 Red. masses --      4.3532                 4.7484                 4.5662
 Frc consts  --      0.0879                 0.2322                 0.2576
 IR Inten    --      0.2441                 0.3785                17.6841

                     10                     11                     12
                      A                      A                      A
 Frequencies --    348.0573               413.9625               547.3205
 Red. masses --      3.2251                 5.3238                 4.6018
 Frc consts  --      0.2302                 0.5375                 0.8122
 IR Inten    --      3.1862                 8.7979                 5.0438

                     13                     14                     15
                      A                      A                      A
 Frequencies --    585.8995               617.0781               636.8045
 Red. masses --      2.2108                 1.1970                 1.2180
 Frc consts  --      0.4471                 0.2685                 0.2910
 IR Inten    --      3.2205                43.4811                44.2388

                     16                     17                     18
                      A                      A                      A
 Frequencies --    698.8656               741.9711               856.2470
 Red. masses --      4.8040                 1.1927                 1.5111
 Frc consts  --      1.3824                 0.3869                 0.6527
 IR Inten    --      3.6549                 3.9290                 3.7401

                     19                     20                     21
                      A                      A                      A
 Frequencies --    891.2689               966.4466              1012.9418
 Red. masses --      5.2042                 3.9876                 5.2450
 Frc consts  --      2.4357                 2.1944                 3.1708
 IR Inten    --     10.4791                 2.6750                 8.7238

                     22                     23                     24
                      A                      A                      A
 Frequencies --   1039.6998              1083.6442              1084.2371
 Red. masses --      3.1070                 3.3424                 1.9191
 Frc consts  --      1.9788                 2.3125                 1.3292
 IR Inten    --     11.1657                 4.4242                 0.7664

                     25                     26                     27
                      A                      A                      A
 Frequencies --   1168.8821              1179.4146              1195.7654
 Red. masses --      1.2053                 1.2854                 2.1825
 Frc consts  --      0.9703                 1.0534                 1.8386
 IR Inten    --      0.3994                 1.3585               242.1113

                     28                     29                     30
                      A                      A                      A
 Frequencies --   1214.4324              1282.2145              1291.6751
 Red. masses --      1.6657                 1.6166                 1.2010
 Frc consts  --      1.4475                 1.5660                 1.1806
 IR Inten    --     90.7391                79.7946                 0.6266

                     31                     32                     33
                      A                      A                      A
 Frequencies --   1318.5606              1363.5229              1400.3378
 Red. masses --      1.0631                 1.6016                 1.7274
 Frc consts  --      1.0890                 1.7544                 1.9958
 IR Inten    --      0.0098                71.8658                30.6209

                     34                     35                     36
                      A                      A                      A
 Frequencies --   1458.9983              1473.5386              1474.3214
 Red. masses --      1.0823                 1.2009                 1.0900
 Frc consts  --      1.3573                 1.5363                 1.3959
 IR Inten    --      8.6496                18.6814                 0.4652

                     37                     38                     39
                      A                      A                      A
 Frequencies --   1481.6247              1497.6123              1499.0178
 Red. masses --      1.0470                 1.0704                 1.0817
 Frc consts  --      1.3541                 1.4144                 1.4321
 IR Inten    --      6.1646                 5.2170                 9.4526

                     40                     41                     42
                      A                      A                      A
 Frequencies --   1821.3769              2240.5713              3011.7629
 Red. masses --     11.3162                 5.9281                 1.0583
 Frc consts  --     22.1182                17.5340                 5.6559
 IR Inten    --    178.4428                 3.1233                17.5961

                     43                     44                     45
                      A                      A                      A
 Frequencies --   3033.1987              3039.7080              3051.3502
 Red. masses --      1.0602                 1.1007                 1.0299
 Frc consts  --      5.7470                 5.9920                 5.6497
 IR Inten    --     11.4118                10.4460                30.4408

                     46                     47                     48
                      A                      A                      A
 Frequencies --   3062.9349              3067.3913              3110.7315
 Red. masses --      1.0994                 1.0599                 1.1047
 Frc consts  --      6.0768                 5.8758                 6.2983
 IR Inten    --      3.6826                15.2023                21.2565

                     49                     50                     51
                      A                      A                      A
 Frequencies --   3125.3918              3158.3573              3507.3560
 Red. masses --      1.1055                 1.1059                 1.1623
 Frc consts  --      6.3626                 6.4996                 8.4243
 IR Inten    --     19.8303                16.3199                67.5729

 - Thermochemistry -
 -------------------
 Temperature   298.150 Kelvin.  Pressure   1.00000 Atm.
 Atom     1 has atomic number  6 and mass  12.00000

 Molecular mass:   126.06808 amu.
 Principal axes and moments of inertia in atomic units:
                           1         2         3
     Eigenvalues --   258.929733306.559513521.13259
           X            1.00000  -0.00029   0.00000
           Y            0.00029   1.00000  -0.00002
           Z            0.00000   0.00002   1.00000
 This molecule is an asymmetric top.
 Rotational symmetry number  1.
 Rotational temperatures (Kelvin)      0.33451     0.02619     0.02460
 Rotational constants (GHZ):           6.97000     0.54581     0.51255
 Zero-point vibrational energy     409152.8 (Joules/Mol)
                                   97.78986 (Kcal/Mol)
 Warning -- explicit consideration of  14 degrees of freedom as
           vibrations may cause significant error
 Vibrational temperatures:     29.43   104.05   115.89   146.42   168.91
          (Kelvin)            252.42   266.33   414.46   445.17   500.78
                              595.60   787.47   842.98   887.84   916.22
                             1005.51  1067.53  1231.95  1282.34  1390.50
                             1457.40  1495.89  1559.12  1559.97  1681.76
                             1696.91  1720.44  1747.30  1844.82  1858.43
                             1897.11  1961.80  2014.77  2099.17  2120.09
                             2121.22  2131.72  2154.73  2156.75  2620.55
                             3223.68  4333.25  4364.09  4373.46  4390.21
                             4406.87  4413.29  4475.64  4496.74  4544.17
                             5046.30

 Zero-point correction=                           0.155838 (Hartree/Particle)
 Thermal correction to Energy=                    0.166547
 Thermal correction to Enthalpy=                  0.167491
 Thermal correction to Gibbs Free Energy=         0.118027
 Sum of electronic and zero-point Energies=           -423.031709
 Sum of electronic and thermal Energies=              -423.021000
 Sum of electronic and thermal Enthalpies=            -423.020056
 Sum of electronic and thermal Free Energies=         -423.069520

                     E (Thermal)             CV                S
                      KCal/Mol        Cal/Mol-Kelvin    Cal/Mol-Kelvin
 Total                  104.510             36.413            104.107
 Electronic               0.000              0.000              0.000
 Translational            0.889              2.981             40.409
 Rotational               0.889              2.981             29.490
 Vibrational            102.732             30.451             34.208
 Vibration     1          0.593              1.986              6.589
 Vibration     2          0.598              1.967              4.089
 Vibration     3          0.600              1.962              3.878
 Vibration     4          0.604              1.948              3.420
 Vibration     5          0.608              1.935              3.143
 Vibration     6          0.627              1.873              2.376
 Vibration     7          0.631              1.860              2.276
 Vibration     8          0.685              1.696              1.485
 Vibration     9          0.699              1.656              1.365
 Vibration    10          0.726              1.579              1.175
 Vibration    11          0.778              1.440              0.913
 Vibration    12          0.903              1.146              0.550
 Vibration    13          0.943              1.062              0.475
 Vibration    14          0.977              0.996              0.421

 Optimization completed on the basis of negligible forces.
    -- Stationary point found.
 Normal termination of Gaussian 09 at Tue Jan 28 09:35:44 2020.
