 Gaussian 09, Revision D.01,
 Gaussian 09:  ES64L-G09RevD.01 24-Apr-2013

 -----------------------------
 # b3lyp 6-31G(2df,p) opt Freq
 -----------------------------

 -----
 titel
 -----
 Symbolic Z-matrix:
 Charge =  0 Multiplicity = 1

 SCF Done:  E(RB3LYP) =  -423.185590156     A.U. after   14 cycles
 Optimization completed.
    -- Stationary point found.
 Normal termination of Gaussian 09 at Mon Jan 27 22:00:22 2020.

 ----------------------------------------------------------------------
 #N Geom=AllCheck Guess=TCheck SCRF=Check GenChk RB3LYP/6-31G(2df,p) Fr
 eq
 ----------------------------------------------------------------------

 Structure from the checkpoint file:  "/scratch/puck/g09_63627d1a-082b-41bf-ac17-90dcbe91536a/Gau-99233.chk"
 -----
 titel
 -----
 Charge =  0 Multiplicity = 1

                         Standard orientation:
 ---------------------------------------------------------------------
 Center     Atomic      Atomic             Coordinates (Angstroms)
 Number     Number       Type             X           Y           Z
 ---------------------------------------------------------------------
      1          6           0        2.732194   -0.611751   -0.169310
      2          6           0        1.271629   -0.407928    0.053881
      3          6           0        0.226280   -1.164286   -0.306046
      4          6           0       -1.041746   -0.384429    0.015391
      5          8           0       -2.255334   -1.076741    0.109198
      6          6           0       -1.027733    0.850539   -0.949140
      7          8           0        0.100197    1.611502   -0.513477
      8          6           0        0.658587    0.872625    0.618890
      9          6           0       -0.603499    0.341233    1.307673
     10          1           0        3.136755    0.169771   -0.824870
     11          1           0        3.293715   -0.553411    0.771571
     12          1           0        2.939200   -1.581785   -0.629989
     13          1           0        0.242823   -2.101619   -0.851654
     14          1           0       -2.424055   -1.512540   -0.732652
     15          1           0       -0.911320    0.562294   -2.001680
     16          1           0       -1.950106    1.433888   -0.833805
     17          1           0        1.316234    1.549876    1.162182
     18          1           0       -0.407357   -0.353163    2.124980
     19          1           0       -1.289065    1.132594    1.622118
 ---------------------------------------------------------------------

 SCF Done:  E(RB3LYP) =  -423.185590156     A.U. after    1 cycles

 The electronic state is 1-A.
 Alpha  occ. eigenvalues --  -19.14467 -19.13143 -10.24239 -10.23167 -10.21921
 Alpha  occ. eigenvalues --  -10.18713 -10.18529 -10.17979 -10.17606  -1.03802
 Alpha  occ. eigenvalues --   -1.01952  -0.83808  -0.75431  -0.72173  -0.68262
 Alpha  occ. eigenvalues --   -0.60549  -0.57756  -0.53322  -0.52589  -0.49117
 Alpha  occ. eigenvalues --   -0.45125  -0.43088  -0.41785  -0.41280  -0.40346
 Alpha  occ. eigenvalues --   -0.38573  -0.37870  -0.36934  -0.35286  -0.33991
 Alpha  occ. eigenvalues --   -0.31062  -0.26459  -0.24596  -0.23597
 Alpha virt. eigenvalues --    0.01298   0.06988   0.10374   0.12271   0.12642
 Alpha virt. eigenvalues --    0.13361   0.15471   0.15836   0.16697   0.17130
 Alpha virt. eigenvalues --    0.17870   0.18975   0.20045   0.21272   0.23133

 Mulliken charges:
               1
     1  C   -0.514809
     2  C    0.363980
     3  C   -0.281151
     4  C    0.343154
     5  O   -0.492892
     6  C   -0.115346
     7  O   -0.275429
     8  C   -0.005855
     9  C   -0.251912
    10  H    0.138889
    11  H    0.126506
    12  H    0.124351
    13  H    0.089004
    14  H    0.280640
    15  H    0.085678
    16  H    0.101165
    17  H    0.072336
    18  H    0.107822
    19  H    0.103870
 Sum of Mulliken charges =   0.00000

 Dipole moment (field-independent basis, Debye):
    X=              0.6318    Y=             -1.2932    Z=             -0.6094  Tot=              1.5629
 Quadrupole moment (field-independent basis, Debye-Ang):
   XX=            -51.9000   YY=            -54.7819   ZZ=            -51.2354
   XY=             -0.3274   XZ=              4.3968   YZ=              4.7234

  Exact polarizability:  89.735   0.451  71.464   3.933   4.928  66.762
 Approx polarizability: 126.686   9.627 112.598   8.261   7.023 100.845

                      1                      2                      3
                      A                      A                      A
 Frequencies --    152.7822               181.3230               215.3080
 Red. masses --      2.8297                 1.0508                 1.0994
 Frc consts  --      0.0389                 0.0204                 0.0300
 IR Inten    --      0.4457                 0.4143                74.8303

                      4                      5                      6
                      A                      A                      A
 Frequencies --    256.2539               286.8210               329.8109
 Red. masses --      2.5868                 3.0389                 4.2959
 Frc consts  --      0.1001                 0.1473                 0.2753
 IR Inten    --      9.7898                 8.7643                17.6515

                      7                      8                      9
                      A                      A                      A
 Frequencies --    402.5868               451.7188               497.3485
 Red. masses --      3.2074                 2.6718                 2.4761
 Frc consts  --      0.3063                 0.3212                 0.3609
 IR Inten    --      2.8102                 4.5402                 2.7080

                     10                     11                     12
                      A                      A                      A
 Frequencies --    552.9834               570.0565               640.9076
 Red. masses --      3.7591                 3.5196                 4.0875
 Frc consts  --      0.6773                 0.6739                 0.9892
 IR Inten    --      2.0651                 1.4979                 2.6447

                     13                     14                     15
                      A                      A                      A
 Frequencies --    718.4652               813.7180               824.3221
 Red. masses --      3.8604                 1.7560                 3.7227
 Frc consts  --      1.1741                 0.6851                 1.4904
 IR Inten    --      1.2249                 5.5115                 0.8929

                     16                     17                     18
                      A                      A                      A
 Frequencies --    858.8111               886.4128               938.1035
 Red. masses --      2.7615                 3.1593                 1.8271
 Frc consts  --      1.2000                 1.4626                 0.9474
 IR Inten    --     51.0177                11.6593                 8.2814

                     19                     20                     21
                      A                      A                      A
 Frequencies --    958.3157               972.6513              1021.3652
 Red. masses --      2.7555                 1.7451                 1.8003
 Frc consts  --      1.4910                 0.9727                 1.1065
 IR Inten    --      7.8316                15.7121                 1.2015

                     22                     23                     24
                      A                      A                      A
 Frequencies --   1031.7495              1056.4950              1068.9303
 Red. masses --      3.7139                 1.7539                 1.7990
 Frc consts  --      2.3293                 1.1534                 1.2111
 IR Inten    --     46.8328                 5.1281                27.5808

                     25                     26                     27
                      A                      A                      A
 Frequencies --   1091.1386              1135.3066              1169.1833
 Red. masses --      1.4695                 1.9014                 1.4405
 Frc consts  --      1.0308                 1.4439                 1.1602
 IR Inten    --     15.0694                 9.0495                 5.8610

                     28                     29                     30
                      A                      A                      A
 Frequencies --   1191.6588              1217.9799              1255.2130
 Red. masses --      1.6395                 1.7085                 1.5728
 Frc consts  --      1.3717                 1.4933                 1.4600
 IR Inten    --     30.4492                 3.4022                13.2053

                     31                     32                     33
                      A                      A                      A
 Frequencies --   1286.8026              1293.9548              1334.9830
 Red. masses --      1.2734                 2.6282                 1.5948
 Frc consts  --      1.2423                 2.5926                 1.6746
 IR Inten    --      2.0950                49.6211                 8.8005

                     34                     35                     36
                      A                      A                      A
 Frequencies --   1339.9036              1391.5575              1411.4435
 Red. masses --      1.9611                 1.6973                 1.2977
 Frc consts  --      2.0744                 1.9364                 1.5232
 IR Inten    --     91.3588                 0.3861                 0.5677

                     37                     38                     39
                      A                      A                      A
 Frequencies --   1479.1254              1486.7069              1491.0798
 Red. masses --      1.0451                 1.0670                 1.1273
 Frc consts  --      1.3472                 1.3896                 1.4767
 IR Inten    --      6.0379                 7.9409                 3.4992

                     40                     41                     42
                      A                      A                      A
 Frequencies --   1521.9784              1692.0451              3008.2147
 Red. masses --      1.0937                 6.9797                 1.0544
 Frc consts  --      1.4926                11.7736                 5.6216
 IR Inten    --      1.5009                 7.1874                65.6505

                     43                     44                     45
                      A                      A                      A
 Frequencies --   3018.1359              3052.1768              3066.4606
 Red. masses --      1.0373                 1.1105                 1.0986
 Frc consts  --      5.5672                 6.0950                 6.0866
 IR Inten    --     27.7762                32.2368                15.5913

                     46                     47                     48
                      A                      A                      A
 Frequencies --   3071.6532              3108.0120              3131.3378
 Red. masses --      1.0602                 1.0996                 1.0908
 Frc consts  --      5.8936                 6.2581                 6.3016
 IR Inten    --     31.4228                17.3280                32.7292

                     49                     50                     51
                      A                      A                      A
 Frequencies --   3142.1553              3187.5290              3811.5511
 Red. masses --      1.1066                 1.0956                 1.0660
 Frc consts  --      6.4373                 6.5584                 9.1248
 IR Inten    --     18.1520                10.3329                21.4951

 - Thermochemistry -
 -------------------
 Temperature   298.150 Kelvin.  Pressure   1.00000 Atm.
 Atom     1 has atomic number  6 and mass  12.00000

 Molecular mass:   126.06808 amu.
 Principal axes and moments of inertia in atomic units:
                           1         2         3
     Eigenvalues --   634.060211171.739421392.62171
           X            0.99933  -0.03618   0.00631
           Y            0.03573   0.99745   0.06180
           Z           -0.00853  -0.06153   0.99807
 This molecule is an asymmetric top.
 Rotational symmetry number  1.
 Warning -- assumption of classical behavior for rotation
           may cause significant error
 Rotational temperatures (Kelvin)      0.13660     0.07392     0.06219
 Rotational constants (GHZ):           2.84632     1.54022     1.29593
 Zero-point vibrational energy     419138.7 (Joules/Mol)
                                  100.17657 (Kcal/Mol)
 Warning -- explicit consideration of  11 degrees of freedom as
           vibrations may cause significant error
 Vibrational temperatures:    219.82   260.88   309.78   368.69   412.67
          (Kelvin)            474.52   579.23   649.92   715.57   795.62
                              820.18   922.12  1033.71  1170.76  1186.01
                             1235.64  1275.35  1349.72  1378.80  1399.43
                             1469.51  1484.46  1520.06  1537.95  1569.90
                             1633.45  1682.19  1714.53  1752.40  1805.97
                             1851.42  1861.71  1920.74  1927.82  2002.14
                             2030.75  2128.13  2139.04  2145.33  2189.78
                             2434.47  4328.14  4342.42  4391.40  4411.95
                             4419.42  4471.73  4505.29  4520.85  4586.14
                             5483.96

 Zero-point correction=                           0.159642 (Hartree/Particle)
 Thermal correction to Energy=                    0.167657
 Thermal correction to Enthalpy=                  0.168602
 Thermal correction to Gibbs Free Energy=         0.127662
 Sum of electronic and zero-point Energies=           -423.025949
 Sum of electronic and thermal Energies=              -423.017933
 Sum of electronic and thermal Enthalpies=            -423.016989
 Sum of electronic and thermal Free Energies=         -423.057928

                     E (Thermal)             CV                S
                      KCal/Mol        Cal/Mol-Kelvin    Cal/Mol-Kelvin
 Total                  105.207             32.046             86.165
 Electronic               0.000              0.000              0.000
 Translational            0.889              2.981             40.409
 Rotational               0.889              2.981             28.427
 Vibrational            103.429             26.084             17.329
 Vibration     1          0.619              1.900              2.637
 Vibration     2          0.630              1.865              2.315
 Vibration     3          0.645              1.818              1.998
 Vibration     4          0.666              1.752              1.687
 Vibration     5          0.684              1.698              1.493
 Vibration     6          0.713              1.616              1.261
 Vibration     7          0.768              1.465              0.953
 Vibration     8          0.810              1.357              0.791
 Vibration     9          0.853              1.256              0.665
 Vibration    10          0.908              1.133              0.538
 Vibration    11          0.926              1.096              0.504

 Optimization completed.
    -- Stationary point found.
 Normal termination of Gaussian 09 at Mon Jan 27 22:43:36 2020.
