 Gaussian 09, Revision D.01,
 Gaussian 09:  ES64L-G09RevD.01 24-Apr-2013

 -----------------------------
 # b3lyp 6-31G(2df,p) opt Freq
 -----------------------------

 -----
 titel
 -----
 Symbolic Z-matrix:
 Charge =  0 Multiplicity = 1

 SCF Done:  E(RB3LYP) =  -423.158283399     A.U. after   14 cycles
 Optimization completed.
    -- Stationary point found.
 Normal termination of Gaussian 09 at Tue Jan 28 09:04:34 2020.

 ----------------------------------------------------------------------
 #N Geom=AllCheck Guess=TCheck SCRF=Check GenChk RB3LYP/6-31G(2df,p) Fr
 eq
 ----------------------------------------------------------------------

 Structure from the checkpoint file:  "/scratch/puck/g09_c3424faf-f63d-40fc-93c3-b7b2704b3b3e/Gau-16485.chk"
 -----
 titel
 -----
 Charge =  0 Multiplicity = 1

                         Standard orientation:
 ---------------------------------------------------------------------
 Center     Atomic      Atomic             Coordinates (Angstroms)
 Number     Number       Type             X           Y           Z
 ---------------------------------------------------------------------
      1          8           0        1.724538    1.612873   -0.221076
      2          6           0        0.876766    1.030385    0.747630
      3          6           0        0.088884   -0.155812    0.193190
      4          6           0       -1.057677   -0.783085    1.081540
      5          6           0       -2.059452   -0.552903   -0.052675
      6          6           0       -2.123923    0.907489   -0.381644
      7          6           0       -0.969342    0.103398   -0.907675
      8          6           0        1.008496   -1.256679   -0.274837
      9          8           0        2.214268   -1.181494   -0.327490
     10          1           0        2.384728    0.938306   -0.425155
     11          1           0        1.438106    0.701705    1.637354
     12          1           0        0.186751    1.815139    1.073513
     13          1           0       -0.881073   -1.835900    1.316057
     14          1           0       -1.258448   -0.250477    2.016808
     15          1           0       -2.833606   -1.248496   -0.350573
     16          1           0       -2.852285    1.183958   -1.137145
     17          1           0       -1.984743    1.658024    0.392067
     18          1           0       -0.780132    0.016872   -1.970419
     19          1           0        0.487743   -2.186923   -0.597149
 ---------------------------------------------------------------------

 SCF Done:  E(RB3LYP) =  -423.158283399     A.U. after    1 cycles

 The electronic state is 1-A.
 Alpha  occ. eigenvalues --  -19.15303 -19.12296 -10.27908 -10.22491 -10.20940
 Alpha  occ. eigenvalues --  -10.20754 -10.20617 -10.20491 -10.19810  -1.05971
 Alpha  occ. eigenvalues --   -1.00646  -0.91139  -0.77383  -0.69756  -0.66356
 Alpha  occ. eigenvalues --   -0.60322  -0.58280  -0.54700  -0.52713  -0.48976
 Alpha  occ. eigenvalues --   -0.46889  -0.46323  -0.44064  -0.42668  -0.40569
 Alpha  occ. eigenvalues --   -0.40171  -0.39908  -0.35347  -0.33722  -0.32509
 Alpha  occ. eigenvalues --   -0.30792  -0.28323  -0.25976  -0.25121
 Alpha virt. eigenvalues --   -0.03323   0.08594   0.08928   0.10353   0.11108
 Alpha virt. eigenvalues --    0.12419   0.12836   0.14381   0.15548   0.15969
 Alpha virt. eigenvalues --    0.17527   0.18236   0.18486   0.21194   0.22430

 Mulliken charges:
               1
     1  O   -0.427917
     2  C   -0.134406
     3  C    0.191571
     4  C   -0.314808
     5  C   -0.034014
     6  C   -0.291078
     7  C   -0.066315
     8  C    0.134398
     9  O   -0.284421
    10  H    0.295305
    11  H    0.091899
    12  H    0.103518
    13  H    0.112172
    14  H    0.109678
    15  H    0.092934
    16  H    0.120633
    17  H    0.113905
    18  H    0.097512
    19  H    0.089435
 Sum of Mulliken charges =   0.00000

 Dipole moment (field-independent basis, Debye):
    X=             -2.8413    Y=             -1.3217    Z=              0.5066  Tot=              3.1744
 Quadrupole moment (field-independent basis, Debye-Ang):
   XX=            -57.0371   YY=            -56.2715   ZZ=            -51.1050
   XY=             -0.1532   XZ=              1.7215   YZ=              0.8846

  Exact polarizability:  87.665  -1.532  72.802  -0.142   0.067  65.977
 Approx polarizability: 128.664  -1.595 107.388  -4.701  -1.446 100.910

                      1                      2                      3
                      A                      A                      A
 Frequencies --     92.3115               111.9531               170.6205
 Red. masses --      4.1684                 4.3518                 3.0193
 Frc consts  --      0.0209                 0.0321                 0.0518
 IR Inten    --      2.5721                 4.3261                 2.4989

                      4                      5                      6
                      A                      A                      A
 Frequencies --    204.2702               279.0656               317.8553
 Red. masses --      4.3308                 2.6164                 2.4878
 Frc consts  --      0.1065                 0.1201                 0.1481
 IR Inten    --      3.9295                 4.6994                 3.2913

                      7                      8                      9
                      A                      A                      A
 Frequencies --    389.2448               411.4396               444.4648
 Red. masses --      2.7796                 2.4502                 3.3983
 Frc consts  --      0.2481                 0.2444                 0.3955
 IR Inten    --      0.1893                 0.6303                 2.0740

                     10                     11                     12
                      A                      A                      A
 Frequencies --    531.7919               562.9542               731.0688
 Red. masses --      2.3594                 1.2171                 2.9522
 Frc consts  --      0.3931                 0.2273                 0.9296
 IR Inten    --     16.3970               125.6636                 1.3553

                     13                     14                     15
                      A                      A                      A
 Frequencies --    766.7696               785.5748               838.5022
 Red. masses --      2.6483                 1.8211                 2.1195
 Frc consts  --      0.9174                 0.6622                 0.8780
 IR Inten    --      5.7659                 5.0138                 5.2541

                     16                     17                     18
                      A                      A                      A
 Frequencies --    885.3487               928.2478               943.6476
 Red. masses --      2.1567                 2.0145                 2.0357
 Frc consts  --      0.9960                 1.0227                 1.0680
 IR Inten    --     29.6942                 4.8985                 6.0913

                     19                     20                     21
                      A                      A                      A
 Frequencies --    972.5073               985.1356              1002.3170
 Red. masses --      1.7523                 1.8915                 1.4992
 Frc consts  --      0.9764                 1.0816                 0.8874
 IR Inten    --     20.5140                12.2512                 1.3064

                     22                     23                     24
                      A                      A                      A
 Frequencies --   1033.2779              1060.2019              1075.6449
 Red. masses --      1.5205                 1.2562                 2.5635
 Frc consts  --      0.9564                 0.8320                 1.7475
 IR Inten    --      3.6259                 5.7456                12.5622

                     25                     26                     27
                      A                      A                      A
 Frequencies --   1088.5007              1101.2587              1126.5046
 Red. masses --      1.5751                 3.5973                 1.8272
 Frc consts  --      1.0996                 2.5704                 1.3662
 IR Inten    --      0.1452                69.2333                14.7947

                     28                     29                     30
                      A                      A                      A
 Frequencies --   1148.9018              1190.1810              1243.8354
 Red. masses --      1.4776                 1.7021                 1.4139
 Frc consts  --      1.1492                 1.4206                 1.2888
 IR Inten    --      3.1719                 7.5798                13.2601

                     31                     32                     33
                      A                      A                      A
 Frequencies --   1254.3718              1296.5551              1308.8125
 Red. masses --      1.4623                 2.2319                 2.1744
 Frc consts  --      1.3556                 2.2106                 2.1946
 IR Inten    --      0.6258                 2.9640                11.1807

                     34                     35                     36
                      A                      A                      A
 Frequencies --   1358.6293              1382.7708              1428.9501
 Red. masses --      2.1144                 1.2690                 1.2288
 Frc consts  --      2.2995                 1.4296                 1.4783
 IR Inten    --      2.9439                 0.2849                18.2080

                     37                     38                     39
                      A                      A                      A
 Frequencies --   1444.0880              1479.9973              1492.4941
 Red. masses --      1.2282                 1.1552                 1.1067
 Frc consts  --      1.5091                 1.4909                 1.4525
 IR Inten    --     63.1740                 1.2118                 3.7657

                     40                     41                     42
                      A                      A                      A
 Frequencies --   1500.6746              1803.1875              2876.3524
 Red. masses --      1.1301                10.3080                 1.0831
 Frc consts  --      1.4995                19.7473                 5.2798
 IR Inten    --      3.4574               198.1094                92.7468

                     43                     44                     45
                      A                      A                      A
 Frequencies --   2976.2320              3047.1730              3075.1294
 Red. masses --      1.0705                 1.0598                 1.0912
 Frc consts  --      5.5867                 5.7979                 6.0796
 IR Inten    --     48.6216                35.0714                23.6036

                     46                     47                     48
                      A                      A                      A
 Frequencies --   3099.6989              3115.4880              3184.3777
 Red. masses --      1.1059                 1.0565                 1.0890
 Frc consts  --      6.2603                 6.0419                 6.5064
 IR Inten    --     16.0524                20.0820                11.5566

                     49                     50                     51
                      A                      A                      A
 Frequencies --   3192.1591              3206.7329              3774.7327
 Red. masses --      1.1015                 1.1083                 1.0651
 Frc consts  --      6.6134                 6.7146                 8.9415
 IR Inten    --      6.1450                18.1108                56.6014

 - Thermochemistry -
 -------------------
 Temperature   298.150 Kelvin.  Pressure   1.00000 Atm.
 Atom     1 has atomic number  8 and mass  15.99491

 Molecular mass:   126.06808 amu.
 Principal axes and moments of inertia in atomic units:
                           1         2         3
     Eigenvalues --   670.062341286.583621585.63121
           X            0.99993   0.00717   0.00953
           Y           -0.00726   0.99993   0.00967
           Z           -0.00946  -0.00973   0.99991
 This molecule is an asymmetric top.
 Rotational symmetry number  1.
 Warning -- assumption of classical behavior for rotation
           may cause significant error
 Rotational temperatures (Kelvin)      0.12926     0.06732     0.05462
 Rotational constants (GHZ):           2.69339     1.40274     1.13818
 Zero-point vibrational energy     417030.2 (Joules/Mol)
                                   99.67261 (Kcal/Mol)
 Warning -- explicit consideration of  11 degrees of freedom as
           vibrations may cause significant error
 Vibrational temperatures:    132.82   161.08   245.48   293.90   401.51
          (Kelvin)            457.32   560.04   591.97   639.48   765.13
                              809.96  1051.84  1103.21  1130.27  1206.42
                             1273.82  1335.54  1357.70  1399.22  1417.39
                             1442.11  1486.65  1525.39  1547.61  1566.11
                             1584.46  1620.79  1653.01  1712.40  1789.60
                             1804.76  1865.45  1883.09  1954.76  1989.50
                             2055.94  2077.72  2129.38  2147.36  2159.13
                             2594.38  4138.42  4282.13  4384.20  4424.42
                             4459.77  4482.49  4581.60  4592.80  4613.77
                             5430.99

 Zero-point correction=                           0.158838 (Hartree/Particle)
 Thermal correction to Energy=                    0.167314
 Thermal correction to Enthalpy=                  0.168258
 Thermal correction to Gibbs Free Energy=         0.125731
 Sum of electronic and zero-point Energies=           -422.999445
 Sum of electronic and thermal Energies=              -422.990969
 Sum of electronic and thermal Enthalpies=            -422.990025
 Sum of electronic and thermal Free Energies=         -423.032552

                     E (Thermal)             CV                S
                      KCal/Mol        Cal/Mol-Kelvin    Cal/Mol-Kelvin
 Total                  104.991             32.429             89.506
 Electronic               0.000              0.000              0.000
 Translational            0.889              2.981             40.409
 Rotational               0.889              2.981             28.704
 Vibrational            103.214             26.467             20.393
 Vibration     1          0.602              1.955              3.610
 Vibration     2          0.607              1.940              3.235
 Vibration     3          0.626              1.879              2.429
 Vibration     4          0.640              1.834              2.094
 Vibration     5          0.679              1.712              1.539
 Vibration     6          0.704              1.639              1.321
 Vibration     7          0.757              1.493              1.003
 Vibration     8          0.775              1.445              0.922
 Vibration     9          0.804              1.373              0.813
 Vibration    10          0.887              1.180              0.583
 Vibration    11          0.919              1.111              0.518

 Normal termination of Gaussian 09 at Tue Jan 28 09:47:30 2020.
