 Gaussian 09, Revision D.01,
 Gaussian 09:  ES64L-G09RevD.01 24-Apr-2013

 -----------------------------
 # b3lyp 6-31G(2df,p) opt Freq
 -----------------------------

 -----
 titel
 -----
 Symbolic Z-matrix:
 Charge =  0 Multiplicity = 1

 SCF Done:  E(RB3LYP) =  -423.116193408     A.U. after   14 cycles
 Optimization completed.
    -- Stationary point found.
 Normal termination of Gaussian 09 at Tue Jan 28 14:24:58 2020.

 ----------------------------------------------------------------------
 #N Geom=AllCheck Guess=TCheck SCRF=Check GenChk RB3LYP/6-31G(2df,p) Fr
 eq
 ----------------------------------------------------------------------

 Structure from the checkpoint file:  "/scratch/puck/g09_fffd0c8c-7454-4f34-aa14-dd281a266fa4/Gau-163938.chk"
 -----
 titel
 -----
 Charge =  0 Multiplicity = 1

                         Standard orientation:
 ---------------------------------------------------------------------
 Center     Atomic      Atomic             Coordinates (Angstroms)
 Number     Number       Type             X           Y           Z
 ---------------------------------------------------------------------
      1          6           0        3.401348    0.563156   -0.263246
      2          6           0        1.965248    0.713464    0.205889
      3          8           0        1.309932   -0.539300    0.053587
      4          6           0       -0.013686   -0.537837    0.480810
      5          6           0       -0.725653   -1.885448    0.312960
      6          8           0       -1.805493   -1.276071   -0.427804
      7          6           0       -1.103723   -0.009469   -0.514681
      8          6           0       -1.904852    1.133890   -0.126440
      9          6           0       -2.544467    2.093113    0.214921
     10          1           0        3.936764    1.510854   -0.154587
     11          1           0        3.919325   -0.199219    0.325348
     12          1           0        3.433027    0.264894   -1.314858
     13          1           0        1.927747    1.025431    1.262074
     14          1           0        1.443995    1.487317   -0.378831
     15          1           0       -0.118531   -0.092157    1.478946
     16          1           0       -0.146076   -2.589127   -0.296930
     17          1           0       -1.080116   -2.382521    1.221218
     18          1           0       -0.679080    0.134650   -1.518273
     19          1           0       -3.117859    2.937632    0.508354
 ---------------------------------------------------------------------

 SCF Done:  E(RB3LYP) =  -423.116193408     A.U. after    1 cycles

 The electronic state is 1-A.
 Alpha  occ. eigenvalues --  -19.15331 -19.13950 -10.25450 -10.24597 -10.23726
 Alpha  occ. eigenvalues --  -10.23155 -10.18570 -10.18219 -10.18197  -1.05881
 Alpha  occ. eigenvalues --   -1.03292  -0.77953  -0.76880  -0.71600  -0.69704
 Alpha  occ. eigenvalues --   -0.62127  -0.58559  -0.54483  -0.52147  -0.50688
 Alpha  occ. eigenvalues --   -0.48014  -0.46404  -0.44359  -0.41945  -0.40968
 Alpha  occ. eigenvalues --   -0.38997  -0.37993  -0.35545  -0.33406  -0.31712
 Alpha  occ. eigenvalues --   -0.28815  -0.27498  -0.26461  -0.24705
 Alpha virt. eigenvalues --    0.01732   0.04623   0.08815   0.10502   0.11468
 Alpha virt. eigenvalues --    0.12442   0.12818   0.13498   0.15033   0.15798
 Alpha virt. eigenvalues --    0.16776   0.17372   0.18407   0.19069   0.20010

 Mulliken charges:
               1
     1  C   -0.386147
     2  C   -0.047419
     3  O   -0.245084
     4  C    0.066683
     5  C   -0.106775
     6  O   -0.285544
     7  C   -0.061608
     8  C    0.313652
     9  C   -0.442603
    10  H    0.119040
    11  H    0.129326
    12  H    0.129750
    13  H    0.095150
    14  H    0.100958
    15  H    0.088191
    16  H    0.112053
    17  H    0.113161
    18  H    0.104875
    19  H    0.202342
 Sum of Mulliken charges =   0.00000

 Dipole moment (field-independent basis, Debye):
    X=              1.6565    Y=              1.3348    Z=              0.9809  Tot=              2.3426
 Quadrupole moment (field-independent basis, Debye-Ang):
   XX=            -55.1873   YY=            -49.8308   ZZ=            -52.3207
   XY=             -2.3409   XZ=             -2.0008   YZ=             -0.5801

  Exact polarizability:  87.707 -11.024  88.277  -3.906   1.880  61.402
 Approx polarizability: 111.838 -21.519 131.121  -6.721   8.004  93.376

                      1                      2                      3
                      A                      A                      A
 Frequencies --     47.8790                63.2931                82.2411
 Red. masses --      3.7702                 2.7326                 2.2233
 Frc consts  --      0.0051                 0.0064                 0.0089
 IR Inten    --      0.8227                 0.4435                 0.8975

                      4                      5                      6
                      A                      A                      A
 Frequencies --    146.2271               195.4200               211.8308
 Red. masses --      3.0166                 3.0966                 3.7154
 Frc consts  --      0.0380                 0.0697                 0.0982
 IR Inten    --      2.0923                 0.7626                 2.1405

                      7                      8                      9
                      A                      A                      A
 Frequencies --    248.5668               331.4089               401.6751
 Red. masses --      1.2562                 3.8257                 4.0227
 Frc consts  --      0.0457                 0.2476                 0.3824
 IR Inten    --      0.9750                 5.4733                 0.8805

                     10                     11                     12
                      A                      A                      A
 Frequencies --    440.5202               514.7247               537.7847
 Red. masses --      3.5602                 4.3441                 6.0080
 Frc consts  --      0.4071                 0.6781                 1.0238
 IR Inten    --      8.2722                 1.6868                 2.4571

                     13                     14                     15
                      A                      A                      A
 Frequencies --    619.5731               672.9012               731.7535
 Red. masses --      1.2219                 1.2617                 3.9680
 Frc consts  --      0.2764                 0.3366                 1.2519
 IR Inten    --     44.3267                33.8472                 7.7070

                     16                     17                     18
                      A                      A                      A
 Frequencies --    818.9801               862.3003               915.5988
 Red. masses --      1.0948                 1.9007                 2.1542
 Frc consts  --      0.4326                 0.8327                 1.0640
 IR Inten    --      0.1721                 0.5016                12.1423

                     19                     20                     21
                      A                      A                      A
 Frequencies --    955.5584               991.2763              1016.4096
 Red. masses --      4.3857                 3.8868                 8.2105
 Frc consts  --      2.3594                 2.2503                 4.9976
 IR Inten    --     17.5835                 9.6731               110.2042

                     22                     23                     24
                      A                      A                      A
 Frequencies --   1055.4839              1071.4896              1096.2790
 Red. masses --      2.9793                 2.7676                 2.6224
 Frc consts  --      1.9556                 1.8721                 1.8569
 IR Inten    --     33.5336                 4.2481                 2.2127

                     25                     26                     27
                      A                      A                      A
 Frequencies --   1151.2118              1163.5920              1183.6712
 Red. masses --      1.5189                 2.2744                 1.9218
 Frc consts  --      1.1860                 1.8144                 1.5864
 IR Inten    --      9.7428               123.9681                82.0664

                     28                     29                     30
                      A                      A                      A
 Frequencies --   1186.2861              1236.5134              1267.9282
 Red. masses --      1.5858                 1.5476                 1.3895
 Frc consts  --      1.3148                 1.3941                 1.3162
 IR Inten    --     18.3338                36.2985                 4.3484

                     31                     32                     33
                      A                      A                      A
 Frequencies --   1298.1703              1323.5599              1352.1836
 Red. masses --      1.1019                 1.2847                 1.3701
 Frc consts  --      1.0941                 1.3260                 1.4760
 IR Inten    --      1.6713                12.6234                12.2660

                     34                     35                     36
                      A                      A                      A
 Frequencies --   1380.7241              1406.6394              1445.8681
 Red. masses --      1.3199                 1.2728                 1.4831
 Frc consts  --      1.4825                 1.4838                 1.8268
 IR Inten    --     61.6385                13.0379                 5.5045

                     37                     38                     39
                      A                      A                      A
 Frequencies --   1483.6155              1499.2229              1515.7374
 Red. masses --      1.0402                 1.0457                 1.1071
 Frc consts  --      1.3490                 1.3848                 1.4986
 IR Inten    --      4.4583                 2.1223                 2.5884

                     40                     41                     42
                      A                      A                      A
 Frequencies --   1527.0538              2233.3268              2972.5794
 Red. masses --      1.0950                 5.9386                 1.0561
 Frc consts  --      1.5044                17.4517                 5.4984
 IR Inten    --      2.6630                 1.4623                34.2801

                     43                     44                     45
                      A                      A                      A
 Frequencies --   3001.2161              3005.3650              3017.8599
 Red. masses --      1.0916                 1.0946                 1.0858
 Frc consts  --      5.7928                 5.8251                 5.8265
 IR Inten    --     14.4918                51.3246                33.2315

                     46                     47                     48
                      A                      A                      A
 Frequencies --   3028.7521              3046.8136              3085.8161
 Red. masses --      1.0583                 1.0347                 1.1090
 Frc consts  --      5.7196                 5.6592                 6.2220
 IR Inten    --     51.7096                16.6978                39.1070

                     49                     50                     51
                      A                      A                      A
 Frequencies --   3122.3286              3123.7165              3501.7776
 Red. masses --      1.1016                 1.1028                 1.1620
 Frc consts  --      6.3272                 6.3403                 8.3953
 IR Inten    --     20.9522                24.3144                66.7215

 - Thermochemistry -
 -------------------
 Temperature   298.150 Kelvin.  Pressure   1.00000 Atm.
 Atom     1 has atomic number  6 and mass  12.00000

 Molecular mass:   126.06808 amu.
 Principal axes and moments of inertia in atomic units:
                           1         2         3
     Eigenvalues --   727.434641745.393672314.68446
           X            0.99986   0.01412  -0.00871
           Y           -0.01417   0.99988  -0.00571
           Z            0.00863   0.00584   0.99995
 This molecule is an asymmetric top.
 Rotational symmetry number  1.
 Warning -- assumption of classical behavior for rotation
           may cause significant error
 Rotational temperatures (Kelvin)      0.11907     0.04962     0.03742
 Rotational constants (GHZ):           2.48097     1.03400     0.77969
 Zero-point vibrational energy     410263.5 (Joules/Mol)
                                   98.05533 (Kcal/Mol)
 Warning -- explicit consideration of  13 degrees of freedom as
           vibrations may cause significant error
 Vibrational temperatures:     68.89    91.06   118.33   210.39   281.17
          (Kelvin)            304.78   357.63   476.82   577.92   633.81
                              740.57   773.75   891.43   968.15  1052.83
                             1178.33  1240.66  1317.34  1374.83  1426.22
                             1462.38  1518.60  1541.63  1577.30  1656.33
                             1674.15  1703.04  1706.80  1779.06  1824.26
                             1867.78  1904.31  1945.49  1986.55  2023.84
                             2080.28  2134.59  2157.04  2180.81  2197.09
                             3213.26  4276.87  4318.08  4324.04  4342.02
                             4357.69  4383.68  4439.80  4492.33  4494.33
                             5038.27

 Zero-point correction=                           0.156261 (Hartree/Particle)
 Thermal correction to Energy=                    0.166065
 Thermal correction to Enthalpy=                  0.167009
 Thermal correction to Gibbs Free Energy=         0.120303
 Sum of electronic and zero-point Energies=           -422.959932
 Sum of electronic and thermal Energies=              -422.950129
 Sum of electronic and thermal Enthalpies=            -422.949184
 Sum of electronic and thermal Free Energies=         -422.995890

                     E (Thermal)             CV                S
                      KCal/Mol        Cal/Mol-Kelvin    Cal/Mol-Kelvin
 Total                  104.207             34.700             98.301
 Electronic               0.000              0.000              0.000
 Translational            0.889              2.981             40.409
 Rotational               0.889              2.981             29.465
 Vibrational            102.430             28.738             28.427
 Vibration     1          0.595              1.978              4.903
 Vibration     2          0.597              1.972              4.352
 Vibration     3          0.600              1.961              3.837
 Vibration     4          0.617              1.907              2.721
 Vibration     5          0.636              1.846              2.176
 Vibration     6          0.643              1.823              2.028
 Vibration     7          0.662              1.765              1.741
 Vibration     8          0.714              1.613              1.253
 Vibration     9          0.767              1.467              0.957
 Vibration    10          0.800              1.382              0.825
 Vibration    11          0.870              1.217              0.622
 Vibration    12          0.893              1.166              0.570
 Vibration    13          0.980              0.991              0.417

 Optimization completed.
    -- Stationary point found.
 Normal termination of Gaussian 09 at Tue Jan 28 15:05:43 2020.
