 Gaussian 09, Revision D.01,
 Gaussian 09:  ES64L-G09RevD.01 24-Apr-2013

 -----------------------------
 # b3lyp 6-31G(2df,p) opt Freq
 -----------------------------

 -----
 titel
 -----
 Symbolic Z-matrix:
 Charge =  0 Multiplicity = 1

 SCF Done:  E(RB3LYP) =  -423.211581776     A.U. after   14 cycles
 Optimization completed.
    -- Stationary point found.
 Normal termination of Gaussian 09 at Mon Jan 27 10:18:21 2020.

 ----------------------------------------------------------------------
 #N Geom=AllCheck Guess=TCheck SCRF=Check GenChk RB3LYP/6-31G(2df,p) Fr
 eq
 ----------------------------------------------------------------------

 Structure from the checkpoint file:  "/scratch/puck/g09_5cf8e254-356c-457d-a66f-d0e362ec3e2b/Gau-66925.chk"
 -----
 titel
 -----
 Charge =  0 Multiplicity = 1

                         Standard orientation:
 ---------------------------------------------------------------------
 Center     Atomic      Atomic             Coordinates (Angstroms)
 Number     Number       Type             X           Y           Z
 ---------------------------------------------------------------------
      1          6           0        1.615878    1.846015    0.354780
      2          6           0        1.166320    0.382725    0.472183
      3          6           0        1.979108   -0.519033   -0.481958
      4          8           0        1.687236   -1.891413   -0.321409
      5          6           0       -0.308614    0.208317    0.223742
      6          6           0       -1.165819   -0.588373    0.923333
      7          8           0       -2.422371   -0.535332    0.403943
      8          6           0       -2.368873    0.308686   -0.658390
      9          6           0       -1.111605    0.791400   -0.823367
     10          1           0        1.054005    2.487301    1.039391
     11          1           0        2.680238    1.943976    0.591162
     12          1           0        1.465773    2.228743   -0.660435
     13          1           0        1.379343    0.028049    1.488194
     14          1           0        1.814446   -0.187772   -1.521412
     15          1           0        3.047411   -0.407097   -0.267438
     16          1           0        0.732008   -1.988934   -0.416467
     17          1           0       -1.043068   -1.208915    1.796184
     18          1           0       -3.297591    0.458396   -1.184032
     19          1           0       -0.789856    1.481790   -1.587359
 ---------------------------------------------------------------------

 SCF Done:  E(RB3LYP) =  -423.211581776     A.U. after    1 cycles

 The electronic state is 1-A.
 Alpha  occ. eigenvalues --  -19.20686 -19.12708 -10.23284 -10.22913 -10.22301
 Alpha  occ. eigenvalues --  -10.19590 -10.19015 -10.18435 -10.18087  -1.10965
 Alpha  occ. eigenvalues --   -1.01056  -0.82414  -0.76862  -0.74116  -0.67168
 Alpha  occ. eigenvalues --   -0.62569  -0.57648  -0.56685  -0.52083  -0.50155
 Alpha  occ. eigenvalues --   -0.45340  -0.45147  -0.43281  -0.42487  -0.41970
 Alpha  occ. eigenvalues --   -0.40145  -0.38650  -0.37709  -0.35240  -0.34010
 Alpha  occ. eigenvalues --   -0.31915  -0.27608  -0.25879  -0.22950
 Alpha virt. eigenvalues --    0.01150   0.06431   0.09045   0.10326   0.11385
 Alpha virt. eigenvalues --    0.12355   0.14363   0.14709   0.15618   0.16754
 Alpha virt. eigenvalues --    0.18145   0.19067   0.19597   0.20408   0.23201

 Mulliken charges:
               1
     1  C   -0.403010
     2  C   -0.118037
     3  C   -0.047414
     4  O   -0.425372
     5  C    0.228002
     6  C   -0.115191
     7  O   -0.140811
     8  C    0.007972
     9  C   -0.288416
    10  H    0.123800
    11  H    0.116470
    12  H    0.117928
    13  H    0.084994
    14  H    0.081953
    15  H    0.104496
    16  H    0.278409
    17  H    0.142367
    18  H    0.138356
    19  H    0.113507
 Sum of Mulliken charges =   0.00000

 Dipole moment (field-independent basis, Debye):
    X=             -0.6588    Y=              1.5832    Z=             -0.2505  Tot=              1.7330
 Quadrupole moment (field-independent basis, Debye-Ang):
   XX=            -54.3954   YY=            -56.4416   ZZ=            -51.1398
   XY=              3.8102   XZ=              2.6595   YZ=             -2.2939

  Exact polarizability:  93.920   4.540  69.525   3.959  -9.252  67.635
 Approx polarizability: 136.029   9.808 105.396   3.478 -20.914 109.252

                      1                      2                      3
                      A                      A                      A
 Frequencies --     37.1974               105.8188               165.2455
 Red. masses --      4.0536                 5.3701                 2.1345
 Frc consts  --      0.0033                 0.0354                 0.0343
 IR Inten    --      0.3225                 0.9985                 0.8486

                      4                      5                      6
                      A                      A                      A
 Frequencies --    204.0080               220.2821               246.1337
 Red. masses --      2.6134                 1.1612                 2.9812
 Frc consts  --      0.0641                 0.0332                 0.1064
 IR Inten    --      0.2919                 0.3147                 2.5491

                      7                      8                      9
                      A                      A                      A
 Frequencies --    351.7791               383.2413               449.0890
 Red. masses --      2.2796                 1.4194                 3.2296
 Frc consts  --      0.1662                 0.1228                 0.3838
 IR Inten    --     30.3908                88.4208                 2.6476

                     10                     11                     12
                      A                      A                      A
 Frequencies --    504.5501               622.0175               624.3201
 Red. masses --      3.9753                 3.2973                 3.3433
 Frc consts  --      0.5962                 0.7516                 0.7678
 IR Inten    --      5.3475                 7.9177                 2.0798

                     13                     14                     15
                      A                      A                      A
 Frequencies --    688.1126               740.0766               792.1567
 Red. masses --      2.3350                 1.3798                 1.4067
 Frc consts  --      0.6514                 0.4453                 0.5201
 IR Inten    --     11.0325                 6.8135                30.2480

                     16                     17                     18
                      A                      A                      A
 Frequencies --    837.5041               883.6313               892.7291
 Red. masses --      1.3230                 2.0326                 5.3034
 Frc consts  --      0.5468                 0.9351                 2.4902
 IR Inten    --      4.0056                 6.4320                21.0546

                     19                     20                     21
                      A                      A                      A
 Frequencies --    936.2469               966.6400              1035.0916
 Red. masses --      1.3715                 3.4993                 1.5611
 Frc consts  --      0.7083                 1.9265                 0.9855
 IR Inten    --      3.2967                11.0002                 2.2163

                     22                     23                     24
                      A                      A                      A
 Frequencies --   1065.3127              1079.1664              1097.4165
 Red. masses --      2.4539                 3.8948                 2.6125
 Frc consts  --      1.6408                 2.6725                 1.8537
 IR Inten    --     25.5921                70.2961                32.9026

                     25                     26                     27
                      A                      A                      A
 Frequencies --   1104.3392              1146.2889              1195.2729
 Red. masses --      1.8519                 2.1010                 1.9490
 Frc consts  --      1.3307                 1.6265                 1.6406
 IR Inten    --     10.6714                 2.3401                21.1345

                     28                     29                     30
                      A                      A                      A
 Frequencies --   1211.2672              1257.4089              1286.0999
 Red. masses --      1.6853                 1.3299                 1.8148
 Frc consts  --      1.4569                 1.2389                 1.7686
 IR Inten    --     13.3722                 4.9346                 2.0990

                     31                     32                     33
                      A                      A                      A
 Frequencies --   1309.2521              1358.7249              1380.8078
 Red. masses --      1.3103                 2.0464                 1.2284
 Frc consts  --      1.3233                 2.2259                 1.3799
 IR Inten    --      0.1494                 6.1883                 2.9785

                     34                     35                     36
                      A                      A                      A
 Frequencies --   1406.4268              1416.6252              1431.6417
 Red. masses --      1.2784                 2.1763                 1.2430
 Frc consts  --      1.4899                 2.5732                 1.5010
 IR Inten    --      3.2800                 9.8345                55.9316

                     37                     38                     39
                      A                      A                      A
 Frequencies --   1496.2289              1498.5898              1506.6995
 Red. masses --      1.0520                 1.0584                 1.0980
 Frc consts  --      1.3876                 1.4005                 1.4686
 IR Inten    --      5.0991                 3.6605                 2.8446

                     40                     41                     42
                      A                      A                      A
 Frequencies --   1535.8301              1622.2177              2960.6720
 Red. masses --      3.6673                 5.7149                 1.0701
 Frc consts  --      5.0966                 8.8609                 5.5266
 IR Inten    --     15.6759                 0.4577                48.7020

                     43                     44                     45
                      A                      A                      A
 Frequencies --   3032.6521              3036.3149              3069.2185
 Red. masses --      1.0755                 1.0423                 1.0923
 Frc consts  --      5.8276                 5.6615                 6.0626
 IR Inten    --     10.3439                29.8358                35.6616

                     46                     47                     48
                      A                      A                      A
 Frequencies --   3101.6955              3114.1748              3254.4168
 Red. masses --      1.1007                 1.1018                 1.0898
 Frc consts  --      6.2391                 6.2954                 6.8006
 IR Inten    --     39.2160                22.3487                 0.7756

                     49                     50                     51
                      A                      A                      A
 Frequencies --   3271.9211              3284.4765              3776.6626
 Red. masses --      1.0969                 1.1059                 1.0653
 Frc consts  --      6.9187                 7.0289                 8.9523
 IR Inten    --      0.1888                 0.8670                29.7465

 - Thermochemistry -
 -------------------
 Temperature   298.150 Kelvin.  Pressure   1.00000 Atm.
 Atom     1 has atomic number  6 and mass  12.00000

 Molecular mass:   126.06808 amu.
 Principal axes and moments of inertia in atomic units:
                           1         2         3
     Eigenvalues --   689.343741503.798821841.44465
           X            0.99949   0.03040   0.00927
           Y           -0.03025   0.99942  -0.01571
           Z           -0.00974   0.01542   0.99983
 This molecule is an asymmetric top.
 Rotational symmetry number  1.
 Warning -- assumption of classical behavior for rotation
           may cause significant error
 Rotational temperatures (Kelvin)      0.12565     0.05760     0.04704
 Rotational constants (GHZ):           2.61806     1.20012     0.98007
 Zero-point vibrational energy     418655.3 (Joules/Mol)
                                  100.06101 (Kcal/Mol)
 Warning -- explicit consideration of  10 degrees of freedom as
           vibrations may cause significant error
 Vibrational temperatures:     53.52   152.25   237.75   293.52   316.94
          (Kelvin)            354.13   506.13   551.40   646.14   725.93
                              894.94   898.26   990.04  1064.80  1139.74
                             1204.98  1271.35  1284.44  1347.05  1390.78
                             1489.26  1532.75  1552.68  1578.94  1588.90
                             1649.25  1719.73  1742.74  1809.13  1850.41
                             1883.72  1954.90  1986.67  2023.53  2038.21
                             2059.81  2152.74  2156.13  2167.80  2209.71
                             2334.01  4259.74  4363.30  4368.57  4415.92
                             4462.64  4480.60  4682.37  4707.56  4725.62
                             5433.77

 Zero-point correction=                           0.159457 (Hartree/Particle)
 Thermal correction to Energy=                    0.168387
 Thermal correction to Enthalpy=                  0.169332
 Thermal correction to Gibbs Free Energy=         0.125073
 Sum of electronic and zero-point Energies=           -423.052124
 Sum of electronic and thermal Energies=              -423.043194
 Sum of electronic and thermal Enthalpies=            -423.042250
 Sum of electronic and thermal Free Energies=         -423.086509

                     E (Thermal)             CV                S
                      KCal/Mol        Cal/Mol-Kelvin    Cal/Mol-Kelvin
 Total                  105.665             33.094             93.150
 Electronic               0.000              0.000              0.000
 Translational            0.889              2.981             40.409
 Rotational               0.889              2.981             29.036
 Vibrational            103.887             27.132             23.706
 Vibration     1          0.594              1.982              5.403
 Vibration     2          0.605              1.945              3.344
 Vibration     3          0.624              1.885              2.489
 Vibration     4          0.640              1.834              2.097
 Vibration     5          0.647              1.810              1.957
 Vibration     6          0.661              1.769              1.758
 Vibration     7          0.728              1.572              1.158
 Vibration     8          0.752              1.506              1.026
 Vibration     9          0.808              1.363              0.799
 Vibration    10          0.860              1.240              0.647

 Optimization completed.
    -- Stationary point found.
 Normal termination of Gaussian 09 at Mon Jan 27 10:56:38 2020.
