 Gaussian 09, Revision D.01,
 Gaussian 09:  ES64L-G09RevD.01 24-Apr-2013

 -----------------------------
 # b3lyp 6-31G(2df,p) opt Freq
 -----------------------------

 -----
 titel
 -----
 Symbolic Z-matrix:
 Charge =  0 Multiplicity = 1

 SCF Done:  E(RB3LYP) =  -423.205935353     A.U. after   14 cycles
 Optimization completed.
    -- Stationary point found.
 Normal termination of Gaussian 09 at Mon Jan 27 18:49:02 2020.

 ----------------------------------------------------------------------
 #N Geom=AllCheck Guess=TCheck SCRF=Check GenChk RB3LYP/6-31G(2df,p) Fr
 eq
 ----------------------------------------------------------------------

 Structure from the checkpoint file:  "/scratch/puck/g09_aea34c5c-7ec7-46f3-ac9d-0ebed44d2cb4/Gau-54615.chk"
 -----
 titel
 -----
 Charge =  0 Multiplicity = 1

                         Standard orientation:
 ---------------------------------------------------------------------
 Center     Atomic      Atomic             Coordinates (Angstroms)
 Number     Number       Type             X           Y           Z
 ---------------------------------------------------------------------
      1          6           0       -1.981659    1.290893    0.569589
      2          6           0       -0.877622    0.438700   -0.034453
      3          6           0       -1.301569   -0.590588   -1.109538
      4          8           0       -0.702184   -1.681814   -0.381325
      5          6           0       -0.399847   -0.834455    0.749372
      6          6           0        1.094653   -0.735962    0.995752
      7          6           0        1.586302    0.298032   -0.025121
      8          8           0        2.703773    0.394966   -0.455957
      9          6           0        0.403383    1.209065   -0.390014
     10          1           0       -2.328133    2.050698   -0.140301
     11          1           0       -2.845150    0.679964    0.852807
     12          1           0       -1.630943    1.814331    1.466235
     13          1           0       -2.387810   -0.716082   -1.211672
     14          1           0       -0.860880   -0.471670   -2.106961
     15          1           0       -0.985713   -1.116055    1.631903
     16          1           0        1.305578   -0.350121    2.002665
     17          1           0        1.614635   -1.689695    0.884216
     18          1           0        0.495635    2.117070    0.221144
     19          1           0        0.468231    1.522228   -1.435298
 ---------------------------------------------------------------------

 SCF Done:  E(RB3LYP) =  -423.205935353     A.U. after    1 cycles

 The electronic state is 1-A.
 Alpha  occ. eigenvalues --  -19.13858 -19.13232 -10.27164 -10.24057 -10.23403
 Alpha  occ. eigenvalues --  -10.21006 -10.19546 -10.19180 -10.19083  -1.04774
 Alpha  occ. eigenvalues --   -1.04122  -0.83177  -0.77012  -0.71681  -0.67370
 Alpha  occ. eigenvalues --   -0.64914  -0.55263  -0.53502  -0.50046  -0.48698
 Alpha  occ. eigenvalues --   -0.46112  -0.44188  -0.43076  -0.42803  -0.41514
 Alpha  occ. eigenvalues --   -0.40895  -0.39735  -0.38308  -0.36108  -0.34890
 Alpha  occ. eigenvalues --   -0.31208  -0.29995  -0.26139  -0.24007
 Alpha virt. eigenvalues --   -0.01875   0.06819   0.08720   0.11654   0.11713
 Alpha virt. eigenvalues --    0.12715   0.13410   0.13944   0.15250   0.16423
 Alpha virt. eigenvalues --    0.16686   0.17232   0.19327   0.19792   0.21898

 Mulliken charges:
               1
     1  C   -0.484406
     2  C    0.271456
     3  C   -0.111106
     4  O   -0.295207
     5  C    0.091177
     6  C   -0.338639
     7  C    0.392013
     8  O   -0.300291
     9  C   -0.390729
    10  H    0.124106
    11  H    0.121873
    12  H    0.118441
    13  H    0.098156
    14  H    0.106267
    15  H    0.072637
    16  H    0.124422
    17  H    0.142473
    18  H    0.126873
    19  H    0.130484
 Sum of Mulliken charges =   0.00000

 Dipole moment (field-independent basis, Debye):
    X=             -2.6924    Y=              1.5232    Z=              1.3280  Tot=              3.3664
 Quadrupole moment (field-independent basis, Debye-Ang):
   XX=            -61.1087   YY=            -55.5951   ZZ=            -50.1972
   XY=             -2.6732   XZ=              3.2538   YZ=             -1.0146

  Exact polarizability:  83.223  -1.809  69.551   0.472  -2.681  70.902
 Approx polarizability: 116.551  -0.575 102.340  -2.643  -3.094 107.287

                      1                      2                      3
                      A                      A                      A
 Frequencies --     69.8600                89.1187               219.6081
 Red. masses --      3.2624                 4.3289                 1.1380
 Frc consts  --      0.0094                 0.0203                 0.0323
 IR Inten    --      2.6134                 4.2049                 0.2313

                      4                      5                      6
                      A                      A                      A
 Frequencies --    246.6745               317.7621               354.6617
 Red. masses --      2.1095                 2.4314                 2.2133
 Frc consts  --      0.0756                 0.1446                 0.1640
 IR Inten    --      1.6201                 0.3056                 1.6686

                      7                      8                      9
                      A                      A                      A
 Frequencies --    392.6114               442.2057               478.1763
 Red. masses --      2.1040                 2.4897                 4.0970
 Frc consts  --      0.1911                 0.2868                 0.5519
 IR Inten    --      1.9079                 3.5195                 7.5141

                     10                     11                     12
                      A                      A                      A
 Frequencies --    564.5071               629.8917               678.8168
 Red. masses --      4.3281                 3.4462                 3.7339
 Frc consts  --      0.8126                 0.8056                 1.0137
 IR Inten    --      1.5053                 0.3828                 2.6798

                     13                     14                     15
                      A                      A                      A
 Frequencies --    771.8185               794.9778               860.7252
 Red. masses --      2.1790                 3.4315                 3.0131
 Frc consts  --      0.7648                 1.2777                 1.3152
 IR Inten    --      5.4102                 7.3002                 2.2971

                     16                     17                     18
                      A                      A                      A
 Frequencies --    884.5876               898.2523               948.1191
 Red. masses --      2.2158                 2.2163                 1.7639
 Frc consts  --      1.0216                 1.0536                 0.9342
 IR Inten    --      1.4848                11.3226                 3.1880

                     19                     20                     21
                      A                      A                      A
 Frequencies --    985.0521              1009.5018              1029.1445
 Red. masses --      1.4345                 2.0635                 4.0638
 Frc consts  --      0.8201                 1.2390                 2.5359
 IR Inten    --      1.7107                24.8142                41.9827

                     22                     23                     24
                      A                      A                      A
 Frequencies --   1044.2009              1098.9540              1128.1327
 Red. masses --      1.8323                 1.9720                 2.4657
 Frc consts  --      1.1771                 1.4032                 1.8489
 IR Inten    --     28.2318                20.3639                20.2164

                     25                     26                     27
                      A                      A                      A
 Frequencies --   1158.6522              1164.3118              1192.0116
 Red. masses --      1.3571                 1.6874                 1.9477
 Frc consts  --      1.0734                 1.3477                 1.6305
 IR Inten    --      6.2661                 3.1261                32.7855

                     28                     29                     30
                      A                      A                      A
 Frequencies --   1231.2472              1249.8367              1273.9600
 Red. masses --      1.8906                 1.7147                 1.9073
 Frc consts  --      1.6887                 1.5781                 1.8238
 IR Inten    --      4.8130                 2.3753                11.3377

                     31                     32                     33
                      A                      A                      A
 Frequencies --   1291.1330              1302.4622              1361.7585
 Red. masses --      1.8128                 1.6337                 1.4877
 Frc consts  --      1.7805                 1.6329                 1.6254
 IR Inten    --      3.1601                 6.2605                10.3265

                     34                     35                     36
                      A                      A                      A
 Frequencies --   1371.9370              1414.8390              1432.1321
 Red. masses --      1.6522                 1.2474                 1.0972
 Frc consts  --      1.8322                 1.4712                 1.3258
 IR Inten    --      0.7806                 1.9052                13.6019

                     37                     38                     39
                      A                      A                      A
 Frequencies --   1451.3594              1492.9848              1496.0131
 Red. masses --      1.0983                 1.0508                 1.0526
 Frc consts  --      1.3631                 1.3800                 1.3880
 IR Inten    --      5.8030                 3.2414                 5.5539

                     40                     41                     42
                      A                      A                      A
 Frequencies --   1526.4585              1853.2039              3003.8085
 Red. masses --      1.1000                12.5707                 1.0564
 Frc consts  --      1.5102                25.4364                 5.6157
 IR Inten    --      0.4347               227.3435                71.6403

                     43                     44                     45
                      A                      A                      A
 Frequencies --   3023.2553              3026.1967              3028.3362
 Red. masses --      1.0468                 1.0612                 1.0666
 Frc consts  --      5.6373                 5.7259                 5.7633
 IR Inten    --      9.3855                21.0992                17.8673

                     46                     47                     48
                      A                      A                      A
 Frequencies --   3042.7388              3052.2774              3089.6577
 Red. masses --      1.0829                 1.1093                 1.1008
 Frc consts  --      5.9068                 6.0888                 6.1913
 IR Inten    --     39.5184                38.3301                19.8690

                     49                     50                     51
                      A                      A                      A
 Frequencies --   3097.4056              3100.5891              3119.6687
 Red. masses --      1.1010                 1.0953                 1.0940
 Frc consts  --      6.2235                 6.2038                 6.2734
 IR Inten    --     29.1280                 8.2334                 2.9842

 - Thermochemistry -
 -------------------
 Temperature   298.150 Kelvin.  Pressure   1.00000 Atm.
 Atom     1 has atomic number  6 and mass  12.00000

 Molecular mass:   126.06808 amu.
 Principal axes and moments of inertia in atomic units:
                           1         2         3
     Eigenvalues --   679.517301220.716131448.51769
           X            0.99856  -0.05278   0.00959
           Y            0.05291   0.99850  -0.01436
           Z           -0.00882   0.01485   0.99985
 This molecule is an asymmetric top.
 Rotational symmetry number  1.
 Warning -- assumption of classical behavior for rotation
           may cause significant error
 Rotational temperatures (Kelvin)      0.12746     0.07095     0.05979
 Rotational constants (GHZ):           2.65592     1.47843     1.24592
 Zero-point vibrational energy     417410.6 (Joules/Mol)
                                   99.76352 (Kcal/Mol)
 Warning -- explicit consideration of  10 degrees of freedom as
           vibrations may cause significant error
 Vibrational temperatures:    100.51   128.22   315.97   354.91   457.19
          (Kelvin)            510.28   564.88   636.23   687.99   812.20
                              906.27   976.66  1110.47  1143.79  1238.39
                             1272.72  1292.38  1364.13  1417.27  1452.45
                             1480.71  1502.37  1581.15  1623.13  1667.04
                             1675.18  1715.04  1771.49  1798.23  1832.94
                             1857.65  1873.95  1959.26  1973.91  2035.64
                             2060.52  2088.18  2148.07  2152.43  2196.23
                             2666.34  4321.81  4349.78  4354.02  4357.09
                             4377.82  4391.54  4445.32  4456.47  4461.05
                             4488.50

 Zero-point correction=                           0.158983 (Hartree/Particle)
 Thermal correction to Energy=                    0.167160
 Thermal correction to Enthalpy=                  0.168104
 Thermal correction to Gibbs Free Energy=         0.125970
 Sum of electronic and zero-point Energies=           -423.046952
 Sum of electronic and thermal Energies=              -423.038775
 Sum of electronic and thermal Enthalpies=            -423.037831
 Sum of electronic and thermal Free Energies=         -423.079965

                     E (Thermal)             CV                S
                      KCal/Mol        Cal/Mol-Kelvin    Cal/Mol-Kelvin
 Total                  104.894             31.390             88.678
 Electronic               0.000              0.000              0.000
 Translational            0.889              2.981             40.409
 Rotational               0.889              2.981             28.576
 Vibrational            103.117             25.429             19.694
 Vibration     1          0.598              1.968              4.157
 Vibration     2          0.602              1.957              3.679
 Vibration     3          0.647              1.811              1.962
 Vibration     4          0.661              1.768              1.754
 Vibration     5          0.704              1.640              1.322
 Vibration     6          0.731              1.566              1.145
 Vibration     7          0.760              1.486              0.990
 Vibration     8          0.802              1.378              0.820
 Vibration     9          0.835              1.298              0.715
 Vibration    10          0.920              1.108              0.515

 Optimization completed.
    -- Stationary point found.
 Normal termination of Gaussian 09 at Mon Jan 27 19:32:45 2020.
