 Gaussian 09, Revision D.01,
 Gaussian 09:  ES64L-G09RevD.01 24-Apr-2013

 -----------------------------
 # b3lyp 6-31G(2df,p) opt Freq
 -----------------------------

 -----
 titel
 -----
 Symbolic Z-matrix:
 Charge =  0 Multiplicity = 1

 SCF Done:  E(RB3LYP) =  -423.201587138     A.U. after   14 cycles
 Optimization completed.
    -- Stationary point found.
 Normal termination of Gaussian 09 at Mon Jan 27 16:11:27 2020.

 ----------------------------------------------------------------------
 #N Geom=AllCheck Guess=TCheck SCRF=Check GenChk RB3LYP/6-31G(2df,p) Fr
 eq
 ----------------------------------------------------------------------

 Structure from the checkpoint file:  "/scratch/puck/g09_52e3cb54-bdb4-427b-bbc5-0a04f87e753b/Gau-35339.chk"
 -----
 titel
 -----
 Charge =  0 Multiplicity = 1

                         Standard orientation:
 ---------------------------------------------------------------------
 Center     Atomic      Atomic             Coordinates (Angstroms)
 Number     Number       Type             X           Y           Z
 ---------------------------------------------------------------------
      1          6           0       -1.074598    1.636622   -0.000134
      2          6           0       -1.295529    0.144609    0.000062
      3          8           0       -2.682384   -0.095736    0.000229
      4          6           0       -0.432396   -0.828284   -0.770640
      5          6           0        0.939538   -0.407741   -1.255400
      6          6           0        1.723629    0.015129   -0.000046
      7          8           0        2.780686    0.588251   -0.000178
      8          6           0        0.939720   -0.407565    1.255468
      9          6           0       -0.432313   -0.828102    0.770989
     10          1           0       -1.539940    2.080876   -0.885438
     11          1           0       -1.540720    2.081150    0.884625
     12          1           0       -0.017420    1.908474    0.000316
     13          1           0       -2.835340   -1.045870   -0.002316
     14          1           0       -0.950173   -1.612293   -1.314626
     15          1           0        1.469972   -1.250887   -1.716070
     16          1           0        0.949283    0.406351   -1.986619
     17          1           0        1.470202   -1.250674    1.716160
     18          1           0        0.949622    0.406610    1.986593
     19          1           0       -0.950207   -1.611871    1.315171
 ---------------------------------------------------------------------

 SCF Done:  E(RB3LYP) =  -423.201587138     A.U. after    1 cycles

 The electronic state is 1-A.
 Alpha  occ. eigenvalues --  -19.14550 -19.13203 -10.27186 -10.24830 -10.19694
 Alpha  occ. eigenvalues --  -10.19674 -10.19603 -10.19601 -10.18168  -1.04379
 Alpha  occ. eigenvalues --   -1.03325  -0.87928  -0.75305  -0.73241  -0.71803
 Alpha  occ. eigenvalues --   -0.57675  -0.57589  -0.55172  -0.50756  -0.48426
 Alpha  occ. eigenvalues --   -0.45101  -0.44648  -0.42340  -0.41712  -0.40436
 Alpha  occ. eigenvalues --   -0.40009  -0.38626  -0.37618  -0.36581  -0.35191
 Alpha  occ. eigenvalues --   -0.34313  -0.27762  -0.24429  -0.24138
 Alpha virt. eigenvalues --   -0.01973   0.07110   0.08632   0.10305   0.11260
 Alpha virt. eigenvalues --    0.12788   0.14815   0.15641   0.16085   0.17548
 Alpha virt. eigenvalues --    0.18200   0.19163   0.19545   0.21458   0.22791

 Mulliken charges:
               1
     1  C   -0.450270
     2  C    0.441406
     3  O   -0.476572
     4  C   -0.143939
     5  C   -0.337508
     6  C    0.382541
     7  O   -0.308483
     8  C   -0.337493
     9  C   -0.143749
    10  H    0.131413
    11  H    0.131451
    12  H    0.132486
    13  H    0.281178
    14  H    0.082042
    15  H    0.132440
    16  H    0.134255
    17  H    0.132441
    18  H    0.134254
    19  H    0.082107
 Sum of Mulliken charges =   0.00000

 Dipole moment (field-independent basis, Debye):
    X=             -1.5028    Y=             -2.2341    Z=             -0.0034  Tot=              2.6926
 Quadrupole moment (field-independent basis, Debye-Ang):
   XX=            -65.2142   YY=            -49.4376   ZZ=            -51.2302
   XY=              0.0089   XZ=              0.0124   YZ=              0.0054

  Exact polarizability:  82.731   1.965  70.101   0.003   0.004  71.043
 Approx polarizability: 118.229   6.155 104.926   0.002   0.009 106.657

                      1                      2                      3
                      A                      A                      A
 Frequencies --     70.3314               136.4679               173.0082
 Red. masses --      5.0666                 1.0891                 1.6575
 Frc consts  --      0.0148                 0.0120                 0.0292
 IR Inten    --      4.8241                45.2144                11.2450

                      4                      5                      6
                      A                      A                      A
 Frequencies --    203.8396               230.4340               284.6378
 Red. masses --      1.3345                 2.6164                 3.4189
 Frc consts  --      0.0327                 0.0819                 0.1632
 IR Inten    --     30.4748                 1.8620                 3.9951

                      7                      8                      9
                      A                      A                      A
 Frequencies --    388.3557               426.4750               451.1130
 Red. masses --      3.5391                 2.5438                 2.6413
 Frc consts  --      0.3145                 0.2726                 0.3167
 IR Inten    --      9.9897                 1.0220                 1.6586

                     10                     11                     12
                      A                      A                      A
 Frequencies --    478.1679               478.6096               640.8665
 Red. masses --      3.7543                 2.7790                 4.2959
 Frc consts  --      0.5058                 0.3751                 1.0395
 IR Inten    --      4.3646                 4.5099                 1.2109

                     13                     14                     15
                      A                      A                      A
 Frequencies --    648.4212               696.8005               767.1117
 Red. masses --      3.4452                 3.6445                 3.1876
 Frc consts  --      0.8534                 1.0426                 1.1052
 IR Inten    --      0.0801                 5.6092                 5.2808

                     16                     17                     18
                      A                      A                      A
 Frequencies --    784.8155               841.7104               879.1821
 Red. masses --      2.0050                 1.8317                 2.3932
 Frc consts  --      0.7276                 0.7646                 1.0899
 IR Inten    --      9.2942                 9.4353                17.7493

                     19                     20                     21
                      A                      A                      A
 Frequencies --    947.3096               983.7914              1011.0514
 Red. masses --      2.1875                 1.8768                 1.7781
 Frc consts  --      1.1566                 1.0702                 1.0709
 IR Inten    --      1.8849                17.1291                12.9318

                     22                     23                     24
                      A                      A                      A
 Frequencies --   1027.6696              1047.1607              1084.8600
 Red. masses --      1.5491                 1.2085                 2.2449
 Frc consts  --      0.9639                 0.7808                 1.5567
 IR Inten    --      5.8389                 1.2138                 4.9829

                     25                     26                     27
                      A                      A                      A
 Frequencies --   1108.5388              1148.2587              1158.1112
 Red. masses --      2.2886                 3.0302                 1.4238
 Frc consts  --      1.6570                 2.3539                 1.1251
 IR Inten    --      4.3687                62.0292                 7.9965

                     28                     29                     30
                      A                      A                      A
 Frequencies --   1177.8984              1195.9133              1222.0344
 Red. masses --      1.2513                 2.1052                 1.4657
 Frc consts  --      1.0229                 1.7740                 1.2896
 IR Inten    --     34.1961                49.7561                46.3789

                     31                     32                     33
                      A                      A                      A
 Frequencies --   1275.4018              1287.6071              1326.2751
 Red. masses --      1.7026                 1.8153                 1.5922
 Frc consts  --      1.6318                 1.7733                 1.6501
 IR Inten    --      7.4432                21.1330                 2.1902

                     34                     35                     36
                      A                      A                      A
 Frequencies --   1375.6442              1425.3855              1447.5755
 Red. masses --      1.5137                 1.5245                 1.5425
 Frc consts  --      1.6877                 1.8249                 1.9044
 IR Inten    --      6.2032                17.7524                18.1013

                     37                     38                     39
                      A                      A                      A
 Frequencies --   1448.1128              1465.0330              1481.0012
 Red. masses --      1.0834                 1.3951                 1.0472
 Frc consts  --      1.3386                 1.7642                 1.3533
 IR Inten    --     15.1830                20.7337                 0.1279

                     40                     41                     42
                      A                      A                      A
 Frequencies --   1509.1638              1845.6533              3035.0746
 Red. masses --      1.1945                12.7902                 1.0643
 Frc consts  --      1.6029                25.6701                 5.7762
 IR Inten    --      7.7054               200.2313                 7.9698

                     43                     44                     45
                      A                      A                      A
 Frequencies --   3037.9935              3045.9548              3085.3024
 Red. masses --      1.0645                 1.0373                 1.0962
 Frc consts  --      5.7886                 5.6701                 6.1482
 IR Inten    --     23.7059                14.0297                 4.8664

                     46                     47                     48
                      A                      A                      A
 Frequencies --   3085.7368              3108.6325              3133.8795
 Red. masses --      1.0976                 1.1014                 1.0995
 Frc consts  --      6.1574                 6.2711                 6.3621
 IR Inten    --     11.8377                13.5698                17.7819

                     49                     50                     51
                      A                      A                      A
 Frequencies --   3146.5175              3157.0662              3821.7099
 Red. masses --      1.0888                 1.0915                 1.0659
 Frc consts  --      6.3510                 6.4099                 9.1724
 IR Inten    --      9.2795                22.9624                16.1308

 - Thermochemistry -
 -------------------
 Temperature   298.150 Kelvin.  Pressure   1.00000 Atm.
 Atom     1 has atomic number  6 and mass  12.00000

 Molecular mass:   126.06808 amu.
 Principal axes and moments of inertia in atomic units:
                           1         2         3
     Eigenvalues --   541.931961521.186721555.73145
           X            0.99993  -0.01199   0.00002
           Y            0.01199   0.99993   0.00020
           Z           -0.00003  -0.00020   1.00000
 This molecule is an asymmetric top.
 Rotational symmetry number  1.
 Warning -- assumption of classical behavior for rotation
           may cause significant error
 Rotational temperatures (Kelvin)      0.15982     0.05694     0.05567
 Rotational constants (GHZ):           3.33020     1.18640     1.16006
 Zero-point vibrational energy     414133.2 (Joules/Mol)
                                   98.98021 (Kcal/Mol)
 Warning -- explicit consideration of  11 degrees of freedom as
           vibrations may cause significant error
 Vibrational temperatures:    101.19   196.35   248.92   293.28   331.54
          (Kelvin)            409.53   558.76   613.60   649.05   687.98
                              688.61   922.06   932.93  1002.54  1103.70
                             1129.17  1211.03  1264.95  1362.97  1415.45
                             1454.68  1478.59  1506.63  1560.87  1594.94
                             1652.09  1666.26  1694.73  1720.65  1758.23
                             1835.02  1852.58  1908.21  1979.24  2050.81
                             2082.74  2083.51  2107.85  2130.83  2171.35
                             2655.48  4366.79  4370.99  4382.44  4439.06
                             4439.68  4472.62  4508.95  4527.13  4542.31
                             5498.58

 Zero-point correction=                           0.157735 (Hartree/Particle)
 Thermal correction to Energy=                    0.166579
 Thermal correction to Enthalpy=                  0.167523
 Thermal correction to Gibbs Free Energy=         0.124341
 Sum of electronic and zero-point Energies=           -423.043852
 Sum of electronic and thermal Energies=              -423.035009
 Sum of electronic and thermal Enthalpies=            -423.034064
 Sum of electronic and thermal Free Energies=         -423.077247

                     E (Thermal)             CV                S
                      KCal/Mol        Cal/Mol-Kelvin    Cal/Mol-Kelvin
 Total                  104.530             33.761             90.885
 Electronic               0.000              0.000              0.000
 Translational            0.889              2.981             40.409
 Rotational               0.889              2.981             28.641
 Vibrational            102.752             27.800             21.835
 Vibration     1          0.598              1.968              4.144
 Vibration     2          0.614              1.917              2.853
 Vibration     3          0.627              1.876              2.403
 Vibration     4          0.640              1.834              2.098
 Vibration     5          0.652              1.794              1.876
 Vibration     6          0.683              1.702              1.506
 Vibration     7          0.757              1.495              1.006
 Vibration     8          0.788              1.413              0.870
 Vibration     9          0.810              1.358              0.792
 Vibration    10          0.835              1.298              0.715
 Vibration    11          0.835              1.298              0.714

 Normal termination of Gaussian 09 at Mon Jan 27 17:11:47 2020.
