 Gaussian 09, Revision D.01,
 Gaussian 09:  ES64L-G09RevD.01 24-Apr-2013

 -----------------------------
 # b3lyp 6-31G(2df,p) opt Freq
 -----------------------------

 -----
 titel
 -----
 Symbolic Z-matrix:
 Charge =  0 Multiplicity = 1

 SCF Done:  E(RB3LYP) =  -423.179580036     A.U. after   13 cycles
 Optimization completed.
    -- Stationary point found.
 Normal termination of Gaussian 09 at Tue Jan 28 09:55:21 2020.

 ----------------------------------------------------------------------
 #N Geom=AllCheck Guess=TCheck SCRF=Check GenChk RB3LYP/6-31G(2df,p) Fr
 eq
 ----------------------------------------------------------------------

 Structure from the checkpoint file:  "/scratch/puck/g09_cbcf1d36-5f46-4d28-a700-822463c9293d/Gau-21391.chk"
 -----
 titel
 -----
 Charge =  0 Multiplicity = 1

                         Standard orientation:
 ---------------------------------------------------------------------
 Center     Atomic      Atomic             Coordinates (Angstroms)
 Number     Number       Type             X           Y           Z
 ---------------------------------------------------------------------
      1          6           0        2.662907   -0.359815    0.111328
      2          8           0        1.703307    0.668119   -0.102285
      3          6           0        0.395931    0.269093   -0.096717
      4          6           0       -0.617439    1.412277   -0.314830
      5          6           0       -1.853628    0.568263   -0.047530
      6          6           0       -1.533864   -0.854431   -0.529125
      7          6           0       -0.114529   -0.833866   -1.070817
      8          6           0       -1.373216   -0.482574    0.928812
      9          8           0       -0.005603   -0.260758    1.194125
     10          1           0        2.701456   -1.058467   -0.734359
     11          1           0        3.630183    0.137757    0.202344
     12          1           0        2.449467   -0.915270    1.029997
     13          1           0       -0.467722    2.210880    0.415789
     14          1           0       -0.563458    1.820770   -1.326841
     15          1           0       -2.859060    0.966012   -0.036000
     16          1           0       -2.297268   -1.535992   -0.879282
     17          1           0        0.402476   -1.786734   -0.932304
     18          1           0       -0.036215   -0.519987   -2.114951
     19          1           0       -1.938464   -0.891537    1.754155
 ---------------------------------------------------------------------

 SCF Done:  E(RB3LYP) =  -423.179580036     A.U. after    1 cycles

 The electronic state is 1-A.
 Alpha  occ. eigenvalues --  -19.15009 -19.13628 -10.27733 -10.22916 -10.22378
 Alpha  occ. eigenvalues --  -10.18895 -10.18814 -10.18235 -10.17981  -1.07587
 Alpha  occ. eigenvalues --   -1.02154  -0.85543  -0.75725  -0.72086  -0.68513
 Alpha  occ. eigenvalues --   -0.58895  -0.55937  -0.55222  -0.53700  -0.47490
 Alpha  occ. eigenvalues --   -0.46846  -0.44644  -0.43959  -0.42747  -0.42040
 Alpha  occ. eigenvalues --   -0.38132  -0.37097  -0.35629  -0.34879  -0.32960
 Alpha  occ. eigenvalues --   -0.30057  -0.27809  -0.26071  -0.23226
 Alpha virt. eigenvalues --    0.09079   0.10772   0.12058   0.13508   0.13797
 Alpha virt. eigenvalues --    0.14214   0.15617   0.16303   0.16432   0.17236
 Alpha virt. eigenvalues --    0.17606   0.19119   0.20663   0.21296   0.21606

 Mulliken charges:
               1
     1  C   -0.262143
     2  O   -0.302487
     3  C    0.470071
     4  C   -0.265353
     5  C   -0.117645
     6  C   -0.115163
     7  C   -0.289540
     8  C    0.094060
     9  O   -0.295256
    10  H    0.113013
    11  H    0.128856
    12  H    0.137056
    13  H    0.112265
    14  H    0.104721
    15  H    0.089189
    16  H    0.088706
    17  H    0.103154
    18  H    0.104975
    19  H    0.101519
 Sum of Mulliken charges =   0.00000

 Dipole moment (field-independent basis, Debye):
    X=             -0.6858    Y=             -0.9030    Z=             -0.9400  Tot=              1.4728
 Quadrupole moment (field-independent basis, Debye-Ang):
   XX=            -47.6969   YY=            -52.8129   ZZ=            -54.1501
   XY=             -1.7590   XZ=             -0.8884   YZ=              0.0926

  Exact polarizability:  84.005  -0.971  69.494  -1.498   0.469  65.887
 Approx polarizability: 109.887  -0.390 104.959  -0.606  -0.604 104.095

                      1                      2                      3
                      A                      A                      A
 Frequencies --     95.1324               160.7187               219.8301
 Red. masses --      2.0658                 1.2802                 2.7700
 Frc consts  --      0.0110                 0.0195                 0.0789
 IR Inten    --      4.0684                 2.7286                 2.7114

                      4                      5                      6
                      A                      A                      A
 Frequencies --    352.8274               390.8794               461.7531
 Red. masses --      2.9295                 2.7772                 2.2131
 Frc consts  --      0.2149                 0.2500                 0.2780
 IR Inten    --      1.5369                 0.6574                 0.3604

                      7                      8                      9
                      A                      A                      A
 Frequencies --    479.2146               565.0941               637.2406
 Red. masses --      2.6701                 4.7261                 5.0109
 Frc consts  --      0.3613                 0.8892                 1.1989
 IR Inten    --      1.1788                 6.3059                 6.2846

                     10                     11                     12
                      A                      A                      A
 Frequencies --    665.4226               707.7036               789.0653
 Red. masses --      4.9635                 5.1845                 2.9292
 Frc consts  --      1.2949                 1.5299                 1.0746
 IR Inten    --      2.6139                 0.6437                13.8676

                     13                     14                     15
                      A                      A                      A
 Frequencies --    805.9415               808.8097               879.1386
 Red. masses --      1.6126                 1.9013                 3.0190
 Frc consts  --      0.6171                 0.7328                 1.3748
 IR Inten    --     16.7884                10.2723                45.6660

                     16                     17                     18
                      A                      A                      A
 Frequencies --    912.8338               975.1608               978.7914
 Red. masses --      1.8739                 1.7051                 2.1069
 Frc consts  --      0.9200                 0.9553                 1.1893
 IR Inten    --      5.9903                 0.2831                 0.4406

                     19                     20                     21
                      A                      A                      A
 Frequencies --   1000.0806              1001.7208              1039.2162
 Red. masses --      1.9577                 2.7002                 2.2787
 Frc consts  --      1.1536                 1.5964                 1.4500
 IR Inten    --      4.3822                29.4630                33.2002

                     22                     23                     24
                      A                      A                      A
 Frequencies --   1050.3496              1057.8882              1093.4939
 Red. masses --      1.2548                 2.1596                 2.5900
 Frc consts  --      0.8156                 1.4240                 1.8246
 IR Inten    --      0.5939                19.7822                71.5020

                     25                     26                     27
                      A                      A                      A
 Frequencies --   1100.3042              1117.4506              1172.3375
 Red. masses --      2.1228                 1.9919                 1.4659
 Frc consts  --      1.5142                 1.4654                 1.1871
 IR Inten    --      2.9549                12.0610                12.0183

                     28                     29                     30
                      A                      A                      A
 Frequencies --   1180.7097              1190.3080              1214.5899
 Red. masses --      1.2892                 1.3738                 2.0282
 Frc consts  --      1.0589                 1.1468                 1.7628
 IR Inten    --      1.1458                18.6240                34.6822

                     31                     32                     33
                      A                      A                      A
 Frequencies --   1238.0122              1257.8794              1302.2842
 Red. masses --      1.7554                 1.6729                 1.8243
 Frc consts  --      1.5852                 1.5595                 1.8229
 IR Inten    --     15.6399                 5.9208                 1.7494

                     34                     35                     36
                      A                      A                      A
 Frequencies --   1311.2941              1362.0457              1386.0970
 Red. masses --      1.8754                 3.0924                 2.4413
 Frc consts  --      1.9000                 3.3801                 2.7635
 IR Inten    --      8.3664               215.1991                 4.2739

                     37                     38                     39
                      A                      A                      A
 Frequencies --   1475.9654              1480.4131              1489.8299
 Red. masses --      1.1132                 1.1835                 1.0611
 Frc consts  --      1.4288                 1.5283                 1.3877
 IR Inten    --      2.8944                 7.5713                 5.3197

                     40                     41                     42
                      A                      A                      A
 Frequencies --   1500.0561              1509.7019              3015.5340
 Red. masses --      1.1631                 1.0586                 1.0378
 Frc consts  --      1.5420                 1.4216                 5.5601
 IR Inten    --     20.3787                 3.5870                38.9297

                     43                     44                     45
                      A                      A                      A
 Frequencies --   3062.5059              3069.9449              3088.8219
 Red. masses --      1.0570                 1.0580                 1.0972
 Frc consts  --      5.8411                 5.8748                 6.1679
 IR Inten    --     26.9147                19.9496                33.1701

                     46                     47                     48
                      A                      A                      A
 Frequencies --   3115.9185              3123.3404              3133.7531
 Red. masses --      1.1073                 1.1080                 1.1030
 Frc consts  --      6.3341                 6.3681                 6.3817
 IR Inten    --     14.5722                19.9541                23.3819

                     49                     50                     51
                      A                      A                      A
 Frequencies --   3202.2892              3209.2174              3223.5129
 Red. masses --      1.0913                 1.0917                 1.0975
 Frc consts  --      6.5932                 6.6244                 6.7191
 IR Inten    --      8.6616                 8.5568                19.3441

 - Thermochemistry -
 -------------------
 Temperature   298.150 Kelvin.  Pressure   1.00000 Atm.
 Atom     1 has atomic number  6 and mass  12.00000

 Molecular mass:   126.06808 amu.
 Principal axes and moments of inertia in atomic units:
                           1         2         3
     Eigenvalues --   502.911161213.141631254.18766
           X            0.99970  -0.02433  -0.00073
           Y            0.02432   0.99661   0.07861
           Z           -0.00118  -0.07861   0.99691
 This molecule is an asymmetric top.
 Rotational symmetry number  1.
 Warning -- assumption of classical behavior for rotation
           may cause significant error
 Rotational temperatures (Kelvin)      0.17222     0.07140     0.06906
 Rotational constants (GHZ):           3.58859     1.48766     1.43897
 Zero-point vibrational energy     422655.2 (Joules/Mol)
                                  101.01701 (Kcal/Mol)
 Warning -- explicit consideration of   8 degrees of freedom as
           vibrations may cause significant error
 Vibrational temperatures:    136.87   231.24   316.29   507.64   562.39
          (Kelvin)            664.36   689.48   813.04   916.85   957.39
                             1018.23  1135.29  1159.57  1163.70  1264.88
                             1313.36  1403.04  1408.26  1438.89  1441.25
                             1495.20  1511.22  1522.06  1573.29  1583.09
                             1607.76  1686.73  1698.78  1712.59  1747.52
                             1781.22  1809.81  1873.69  1886.66  1959.68
                             1994.28  2123.58  2129.98  2143.53  2158.24
                             2172.12  4338.68  4406.26  4416.96  4444.12
                             4483.11  4493.78  4508.77  4607.37  4617.34
                             4637.91

 Zero-point correction=                           0.160981 (Hartree/Particle)
 Thermal correction to Energy=                    0.168266
 Thermal correction to Enthalpy=                  0.169210
 Thermal correction to Gibbs Free Energy=         0.129361
 Sum of electronic and zero-point Energies=           -423.018599
 Sum of electronic and thermal Energies=              -423.011315
 Sum of electronic and thermal Enthalpies=            -423.010370
 Sum of electronic and thermal Free Energies=         -423.050219

                     E (Thermal)             CV                S
                      KCal/Mol        Cal/Mol-Kelvin    Cal/Mol-Kelvin
 Total                  105.588             29.513             83.869
 Electronic               0.000              0.000              0.000
 Translational            0.889              2.981             40.409
 Rotational               0.889              2.981             28.128
 Vibrational            103.811             23.552             15.333
 Vibration     1          0.603              1.953              3.552
 Vibration     2          0.622              1.891              2.541
 Vibration     3          0.647              1.811              1.960
 Vibration     4          0.729              1.569              1.154
 Vibration     5          0.759              1.490              0.997
 Vibration     6          0.819              1.335              0.761
 Vibration     7          0.836              1.296              0.712
 Vibration     8          0.921              1.107              0.514

 Normal termination of Gaussian 09 at Tue Jan 28 10:41:29 2020.
