 Gaussian 09, Revision D.01,
 Gaussian 09:  ES64L-G09RevD.01 24-Apr-2013

 -----------------------------
 # b3lyp 6-31G(2df,p) opt Freq
 -----------------------------

 -----
 titel
 -----
 Symbolic Z-matrix:
 Charge =  0 Multiplicity = 1

 SCF Done:  E(RB3LYP) =  -423.210629272     A.U. after   14 cycles
 Optimization completed.
    -- Stationary point found.
 Normal termination of Gaussian 09 at Tue Jan 28 00:37:39 2020.

 ----------------------------------------------------------------------
 #N Geom=AllCheck Guess=TCheck SCRF=Check GenChk RB3LYP/6-31G(2df,p) Fr
 eq
 ----------------------------------------------------------------------

 Structure from the checkpoint file:  "/scratch/puck/g09_42e420ba-a4ac-4989-a105-49594a322d09/Gau-107566.chk"
 -----
 titel
 -----
 Charge =  0 Multiplicity = 1

                         Standard orientation:
 ---------------------------------------------------------------------
 Center     Atomic      Atomic             Coordinates (Angstroms)
 Number     Number       Type             X           Y           Z
 ---------------------------------------------------------------------
      1          6           0        3.019059   -0.553251    0.025883
      2          6           0        1.654929   -0.113440   -0.519954
      3          6           0        0.468099   -0.982800   -0.026823
      4          6           0       -0.712977   -0.009690    0.285198
      5          8           0       -1.391967   -0.342144    1.469259
      6          6           0       -1.707592    0.000567   -0.867797
      7          8           0       -2.884743   -0.214154   -0.707937
      8          6           0       -0.011787    1.337220    0.350272
      9          6           0        1.241589    1.277315   -0.091890
     10          1           0        3.253106   -1.576981   -0.283930
     11          1           0        3.820926    0.097398   -0.338949
     12          1           0        3.028069   -0.520288    1.120501
     13          1           0        1.707367   -0.148681   -1.618100
     14          1           0        0.198407   -1.775406   -0.731399
     15          1           0        0.712658   -1.460774    0.926126
     16          1           0       -2.321769   -0.460338    1.216096
     17          1           0       -1.282089    0.221185   -1.867806
     18          1           0       -0.532932    2.217594    0.707955
     19          1           0        1.922021    2.121150   -0.150405
 ---------------------------------------------------------------------

 SCF Done:  E(RB3LYP) =  -423.210629272     A.U. after    1 cycles

 The electronic state is 1-A.
 Alpha  occ. eigenvalues --  -19.15918 -19.13260 -10.27997 -10.24812 -10.20184
 Alpha  occ. eigenvalues --  -10.19340 -10.19066 -10.18886 -10.18201  -1.07040
 Alpha  occ. eigenvalues --   -1.01629  -0.85382  -0.75607  -0.72395  -0.67010
 Alpha  occ. eigenvalues --   -0.61646  -0.56399  -0.54656  -0.52334  -0.50550
 Alpha  occ. eigenvalues --   -0.47005  -0.45115  -0.42224  -0.41858  -0.39967
 Alpha  occ. eigenvalues --   -0.38943  -0.37343  -0.35963  -0.35288  -0.34362
 Alpha  occ. eigenvalues --   -0.33878  -0.28842  -0.26815  -0.25034
 Alpha virt. eigenvalues --   -0.03987   0.01803   0.09274   0.10813   0.11519
 Alpha virt. eigenvalues --    0.12986   0.13533   0.14075   0.15979   0.16177
 Alpha virt. eigenvalues --    0.16653   0.18297   0.19561   0.20659   0.23831

 Mulliken charges:
               1
     1  C   -0.398122
     2  C   -0.020540
     3  C   -0.301265
     4  C    0.300015
     5  O   -0.480441
     6  C    0.114123
     7  O   -0.277219
     8  C   -0.145732
     9  C   -0.062981
    10  H    0.118231
    11  H    0.115195
    12  H    0.123904
    13  H    0.083686
    14  H    0.102623
    15  H    0.129221
    16  H    0.290286
    17  H    0.099233
    18  H    0.108305
    19  H    0.101479
 Sum of Mulliken charges =   0.00000

 Dipole moment (field-independent basis, Debye):
    X=              2.2656    Y=              0.4548    Z=             -1.4088  Tot=              2.7064
 Quadrupole moment (field-independent basis, Debye-Ang):
   XX=            -57.6071   YY=            -51.2004   ZZ=            -55.5160
   XY=             -0.6052   XZ=             -1.4626   YZ=              0.5125

  Exact polarizability: 102.062   1.316  68.507  -4.613   0.909  64.465
 Approx polarizability: 148.571   4.840  99.905 -11.287   0.974 101.463

                      1                      2                      3
                      A                      A                      A
 Frequencies --     57.0859                96.7848               187.0210
 Red. masses --      3.2948                 5.0946                 2.8274
 Frc consts  --      0.0063                 0.0281                 0.0583
 IR Inten    --      0.3674                 0.3997                 0.6477

                      4                      5                      6
                      A                      A                      A
 Frequencies --    237.8893               272.1125               295.3522
 Red. masses --      1.1108                 3.0065                 2.6676
 Frc consts  --      0.0370                 0.1312                 0.1371
 IR Inten    --      0.2248                 3.5484                 6.1074

                      7                      8                      9
                      A                      A                      A
 Frequencies --    341.2895               389.5003               416.8224
 Red. masses --      3.7618                 2.2590                 1.9449
 Frc consts  --      0.2582                 0.2019                 0.1991
 IR Inten    --      9.1966                14.0577                21.6534

                     10                     11                     12
                      A                      A                      A
 Frequencies --    443.0539               501.2022               571.1869
 Red. masses --      4.7136                 1.2869                 3.2391
 Frc consts  --      0.5451                 0.1905                 0.6226
 IR Inten    --      2.9506                34.7727                 9.1749

                     13                     14                     15
                      A                      A                      A
 Frequencies --    656.7321               772.8411               785.2742
 Red. masses --      3.4611                 3.8977                 1.5162
 Frc consts  --      0.8795                 1.3716                 0.5509
 IR Inten    --      2.4818                 0.4384                46.4288

                     16                     17                     18
                      A                      A                      A
 Frequencies --    834.0104               850.8849               881.1436
 Red. masses --      4.0587                 2.6440                 1.7840
 Frc consts  --      1.6633                 1.1279                 0.8161
 IR Inten    --     27.6227                 1.1155                 4.9080

                     19                     20                     21
                      A                      A                      A
 Frequencies --    931.5980               974.8692               980.3077
 Red. masses --      1.8641                 1.7873                 1.3495
 Frc consts  --      0.9532                 1.0008                 0.7641
 IR Inten    --      1.8596                 4.9264                 0.3746

                     22                     23                     24
                      A                      A                      A
 Frequencies --    995.3659              1053.9172              1086.9525
 Red. masses --      1.7468                 1.8137                 1.8586
 Frc consts  --      1.0197                 1.1869                 1.2937
 IR Inten    --     12.3581                 4.4540                24.6892

                     25                     26                     27
                      A                      A                      A
 Frequencies --   1111.0358              1137.7072              1160.5863
 Red. masses --      1.8258                 2.7161                 1.4976
 Frc consts  --      1.3279                 2.0714                 1.1885
 IR Inten    --      9.6242                 4.1770                 7.1680

                     28                     29                     30
                      A                      A                      A
 Frequencies --   1188.8504              1238.7022              1285.2672
 Red. masses --      2.6934                 1.6809                 1.4513
 Frc consts  --      2.2428                 1.5196                 1.4126
 IR Inten    --     46.4110                 7.1648                 6.7480

                     31                     32                     33
                      A                      A                      A
 Frequencies --   1309.2569              1338.8927              1374.1420
 Red. masses --      1.5047                 1.3431                 1.5859
 Frc consts  --      1.5196                 1.4185                 1.7644
 IR Inten    --      1.5998                14.0954                42.6949

                     34                     35                     36
                      A                      A                      A
 Frequencies --   1384.0673              1409.0585              1432.2041
 Red. masses --      1.2426                 1.2302                 1.4067
 Frc consts  --      1.4025                 1.4391                 1.7001
 IR Inten    --     41.6717                 3.4869                45.7818

                     37                     38                     39
                      A                      A                      A
 Frequencies --   1482.7150              1497.3217              1499.1052
 Red. masses --      1.0876                 1.0438                 1.0540
 Frc consts  --      1.4087                 1.3787                 1.3956
 IR Inten    --      3.1597                 4.8793                 2.7371

                     40                     41                     42
                      A                      A                      A
 Frequencies --   1678.8707              1808.3036              2932.2438
 Red. masses --      6.9474                10.3700                 1.0862
 Frc consts  --     11.5373                19.9788                 5.5024
 IR Inten    --      0.7910               194.6399                58.9595

                     43                     44                     45
                      A                      A                      A
 Frequencies --   2989.9010              3030.0283              3055.0701
 Red. masses --      1.0821                 1.0346                 1.0604
 Frc consts  --      5.6996                 5.5964                 5.8310
 IR Inten    --     24.1483                27.1311                17.9283

                     46                     47                     48
                      A                      A                      A
 Frequencies --   3099.6008              3102.8275              3105.8860
 Red. masses --      1.1023                 1.1029                 1.1029
 Frc consts  --      6.2397                 6.2563                 6.2683
 IR Inten    --     23.5974                 7.1348                32.9408

                     49                     50                     51
                      A                      A                      A
 Frequencies --   3178.4777              3211.3784              3681.4633
 Red. masses --      1.0863                 1.1025                 1.0646
 Frc consts  --      6.4662                 6.6993                 8.5014
 IR Inten    --      7.2311                11.7665                80.3177

 - Thermochemistry -
 -------------------
 Temperature   298.150 Kelvin.  Pressure   1.00000 Atm.
 Atom     1 has atomic number  6 and mass  12.00000

 Molecular mass:   126.06808 amu.
 Principal axes and moments of inertia in atomic units:
                           1         2         3
     Eigenvalues --   518.852111733.307921763.66632
           X            0.99990  -0.01258  -0.00689
           Y            0.01283   0.99916   0.03885
           Z            0.00640  -0.03894   0.99922
 This molecule is an asymmetric top.
 Rotational symmetry number  1.
 Warning -- assumption of classical behavior for rotation
           may cause significant error
 Rotational temperatures (Kelvin)      0.16693     0.04997     0.04911
 Rotational constants (GHZ):           3.47833     1.04121     1.02329
 Zero-point vibrational energy     414722.3 (Joules/Mol)
                                   99.12102 (Kcal/Mol)
 Warning -- explicit consideration of  12 degrees of freedom as
           vibrations may cause significant error
 Vibrational temperatures:     82.13   139.25   269.08   342.27   391.51
          (Kelvin)            424.95   491.04   560.40   599.71   637.46
                              721.12   821.81   944.89  1111.94  1129.83
                             1199.95  1224.23  1267.77  1340.36  1402.62
                             1410.44  1432.11  1516.35  1563.88  1598.53
                             1636.90  1669.82  1710.49  1782.21  1849.21
                             1883.73  1926.37  1977.08  1991.36  2027.32
                             2060.62  2133.29  2154.31  2156.88  2415.52
                             2601.74  4218.84  4301.80  4359.53  4395.56
                             4459.63  4464.27  4468.67  4573.11  4620.45
                             5296.80

 Zero-point correction=                           0.157959 (Hartree/Particle)
 Thermal correction to Energy=                    0.166866
 Thermal correction to Enthalpy=                  0.167810
 Thermal correction to Gibbs Free Energy=         0.124177
 Sum of electronic and zero-point Energies=           -423.052670
 Sum of electronic and thermal Energies=              -423.043763
 Sum of electronic and thermal Enthalpies=            -423.042819
 Sum of electronic and thermal Free Energies=         -423.086452

                     E (Thermal)             CV                S
                      KCal/Mol        Cal/Mol-Kelvin    Cal/Mol-Kelvin
 Total                  104.710             33.704             91.834
 Electronic               0.000              0.000              0.000
 Translational            0.889              2.981             40.409
 Rotational               0.889              2.981             28.852
 Vibrational            102.933             27.743             22.574
 Vibration     1          0.596              1.975              4.555
 Vibration     2          0.603              1.951              3.518
 Vibration     3          0.632              1.858              2.257
 Vibration     4          0.656              1.783              1.819
 Vibration     5          0.675              1.725              1.583
 Vibration     6          0.690              1.682              1.443
 Vibration     7          0.721              1.593              1.206
 Vibration     8          0.757              1.493              1.002
 Vibration     9          0.780              1.434              0.903
 Vibration    10          0.803              1.376              0.817
 Vibration    11          0.857              1.247              0.655
 Vibration    12          0.927              1.094              0.502

 Optimization completed.
    -- Stationary point found.
 Normal termination of Gaussian 09 at Tue Jan 28 01:19:36 2020.
