 Gaussian 09, Revision D.01,
 Gaussian 09:  ES64L-G09RevD.01 24-Apr-2013

 -----------------------------
 # b3lyp 6-31G(2df,p) opt Freq
 -----------------------------

 -----
 titel
 -----
 Symbolic Z-matrix:
 Charge =  0 Multiplicity = 1

 SCF Done:  E(RB3LYP) =  -423.166563461     A.U. after   14 cycles
 Optimization completed.
    -- Stationary point found.
 Normal termination of Gaussian 09 at Mon Jan 27 17:54:20 2020.

 ----------------------------------------------------------------------
 #N Geom=AllCheck Guess=TCheck SCRF=Check GenChk RB3LYP/6-31G(2df,p) Fr
 eq
 ----------------------------------------------------------------------

 Structure from the checkpoint file:  "/scratch/puck/g09_fe824242-4616-479f-8180-daff8b23f3fe/Gau-16479.chk"
 -----
 titel
 -----
 Charge =  0 Multiplicity = 1

                         Standard orientation:
 ---------------------------------------------------------------------
 Center     Atomic      Atomic             Coordinates (Angstroms)
 Number     Number       Type             X           Y           Z
 ---------------------------------------------------------------------
      1          8           0        2.366245   -0.283577   -0.748396
      2          6           0        1.149834   -0.148461   -0.059383
      3          6           0        1.128667    0.636618    1.218485
      4          6           0        0.579798    1.240467   -0.084006
      5          6           0       -0.848631    1.580721   -0.282305
      6          6           0       -1.927930    0.795394   -0.289410
      7          6           0       -2.020509   -0.690709   -0.079318
      8          8           0       -0.919886   -1.307530    0.557746
      9          6           0        0.261050   -1.372798   -0.210334
     10          1           0        2.929751   -0.877985   -0.239533
     11          1           0        0.399861    0.347916    1.966433
     12          1           0        2.068860    1.031074    1.588299
     13          1           0        1.260652    1.956338   -0.534293
     14          1           0       -1.020504    2.641814   -0.452798
     15          1           0       -2.893556    1.264024   -0.473861
     16          1           0       -2.883333   -0.906736    0.562550
     17          1           0       -2.221388   -1.188057   -1.046450
     18          1           0        0.816500   -2.250043    0.148410
     19          1           0        0.038615   -1.536892   -1.275931
 ---------------------------------------------------------------------

 SCF Done:  E(RB3LYP) =  -423.166563461     A.U. after    1 cycles

 The electronic state is 1-A.
 Alpha  occ. eigenvalues --  -19.14472 -19.14337 -10.23694 -10.23267 -10.22906
 Alpha  occ. eigenvalues --  -10.19070 -10.18341 -10.18137 -10.17857  -1.04028
 Alpha  occ. eigenvalues --   -1.02720  -0.85070  -0.78325  -0.71514  -0.67391
 Alpha  occ. eigenvalues --   -0.61430  -0.57150  -0.53220  -0.52287  -0.49070
 Alpha  occ. eigenvalues --   -0.47329  -0.46244  -0.43656  -0.43430  -0.39362
 Alpha  occ. eigenvalues --   -0.38394  -0.37402  -0.35223  -0.33776  -0.32256
 Alpha  occ. eigenvalues --   -0.29328  -0.26932  -0.25132  -0.22885
 Alpha virt. eigenvalues --    0.01634   0.07789   0.08489   0.11665   0.12227
 Alpha virt. eigenvalues --    0.14127   0.14899   0.15738   0.16430   0.17451
 Alpha virt. eigenvalues --    0.18199   0.19163   0.20255   0.23092   0.24335

 Mulliken charges:
               1
     1  O   -0.463369
     2  C    0.352905
     3  C   -0.350567
     4  C   -0.091408
     5  C   -0.052600
     6  C   -0.083283
     7  C   -0.138805
     8  O   -0.234446
     9  C   -0.152494
    10  H    0.282631
    11  H    0.131432
    12  H    0.109979
    13  H    0.100013
    14  H    0.088670
    15  H    0.087204
    16  H    0.116148
    17  H    0.100996
    18  H    0.095124
    19  H    0.101868
 Sum of Mulliken charges =   0.00000

 Dipole moment (field-independent basis, Debye):
    X=              0.0837    Y=             -0.2718    Z=              0.2374  Tot=              0.3704
 Quadrupole moment (field-independent basis, Debye-Ang):
   XX=            -47.9231   YY=            -51.7131   ZZ=            -55.8888
   XY=             -2.7299   XZ=              4.1579   YZ=              0.7889

  Exact polarizability:  95.418   0.909  77.760   4.999   0.316  60.794
 Approx polarizability: 135.089   6.175 112.806   5.550  -1.530  96.870

                      1                      2                      3
                      A                      A                      A
 Frequencies --     95.8005               177.9753               266.1833
 Red. masses --      2.2215                 3.6979                 2.7998
 Frc consts  --      0.0120                 0.0690                 0.1169
 IR Inten    --      1.4947                 4.2668                 6.8318

                      4                      5                      6
                      A                      A                      A
 Frequencies --    283.5795               309.4540               350.9563
 Red. masses --      3.0631                 1.4169                 4.1237
 Frc consts  --      0.1451                 0.0799                 0.2993
 IR Inten    --      4.4275                76.9821                 6.0764

                      7                      8                      9
                      A                      A                      A
 Frequencies --    409.4660               427.1105               459.6476
 Red. masses --      2.8717                 2.5351                 3.7988
 Frc consts  --      0.2837                 0.2725                 0.4729
 IR Inten    --      3.4988                12.9860                 0.2728

                     10                     11                     12
                      A                      A                      A
 Frequencies --    491.2171               576.5757               680.6027
 Red. masses --      2.1237                 3.7220                 2.0829
 Frc consts  --      0.3019                 0.7290                 0.5685
 IR Inten    --      4.5482                 2.5635                12.2507

                     13                     14                     15
                      A                      A                      A
 Frequencies --    741.9543               773.3481               813.7969
 Red. masses --      1.8681                 2.5178                 3.6333
 Frc consts  --      0.6059                 0.8872                 1.4177
 IR Inten    --     14.2029                 7.9148                 6.6051

                     16                     17                     18
                      A                      A                      A
 Frequencies --    887.8033               900.9108               932.9663
 Red. masses --      3.0195                 2.8844                 1.5425
 Frc consts  --      1.4022                 1.3793                 0.7911
 IR Inten    --      5.6171                22.6787                 8.5325

                     19                     20                     21
                      A                      A                      A
 Frequencies --    969.9264               992.0025              1002.0296
 Red. masses --      1.9920                 3.0812                 1.2973
 Frc consts  --      1.1041                 1.7864                 0.7674
 IR Inten    --     10.4343                10.2711                 1.4451

                     22                     23                     24
                      A                      A                      A
 Frequencies --   1025.5609              1057.1305              1081.0574
 Red. masses --      1.8268                 1.3746                 2.2201
 Frc consts  --      1.1321                 0.9051                 1.5287
 IR Inten    --      7.4974                 7.9314                51.2936

                     25                     26                     27
                      A                      A                      A
 Frequencies --   1107.7047              1121.2843              1165.1446
 Red. masses --      1.9585                 1.3898                 3.5912
 Frc consts  --      1.4159                 1.0295                 2.8724
 IR Inten    --      4.3611                 4.0460                80.5932

                     28                     29                     30
                      A                      A                      A
 Frequencies --   1216.4028              1261.7002              1276.3724
 Red. masses --      1.9303                 1.1694                 1.3287
 Frc consts  --      1.6828                 1.0968                 1.2754
 IR Inten    --     81.7089                 8.4604                22.7912

                     31                     32                     33
                      A                      A                      A
 Frequencies --   1305.6093              1325.5924              1358.1915
 Red. masses --      1.4410                 1.3150                 1.3941
 Frc consts  --      1.4473                 1.3615                 1.5152
 IR Inten    --     10.9336                 8.4483                18.6088

                     34                     35                     36
                      A                      A                      A
 Frequencies --   1388.8887              1411.2032              1418.6326
 Red. masses --      1.4747                 1.4435                 1.2516
 Frc consts  --      1.6761                 1.6938                 1.4840
 IR Inten    --      3.1435                 6.7096                 3.7407

                     37                     38                     39
                      A                      A                      A
 Frequencies --   1433.2425              1474.1618              1486.3146
 Red. masses --      1.5987                 1.1586                 1.3599
 Frc consts  --      1.9349                 1.4835                 1.7700
 IR Inten    --      9.3022                 1.7441                12.9593

                     40                     41                     42
                      A                      A                      A
 Frequencies --   1498.2923              1732.5200              2934.0167
 Red. masses --      1.3327                 7.1063                 1.0720
 Frc consts  --      1.7626                12.5676                 5.4371
 IR Inten    --      2.8150                 5.4385                58.2415

                     43                     44                     45
                      A                      A                      A
 Frequencies --   2985.9116              3034.7550              3047.0342
 Red. masses --      1.0590                 1.1028                 1.0878
 Frc consts  --      5.5630                 5.9841                 5.9505
 IR Inten    --     60.4037                41.5557                28.5210

                     46                     47                     48
                      A                      A                      A
 Frequencies --   3126.7624              3136.1156              3147.3817
 Red. masses --      1.0823                 1.0534                 1.0909
 Frc consts  --      6.2344                 6.1041                 6.3673
 IR Inten    --      3.4412                10.1604                28.2261

                     49                     50                     51
                      A                      A                      A
 Frequencies --   3160.8287              3238.1502              3785.1808
 Red. masses --      1.0900                 1.1172                 1.0660
 Frc consts  --      6.4159                 6.9020                 8.9987
 IR Inten    --     16.7860                 3.6234                13.8436

 - Thermochemistry -
 -------------------
 Temperature   298.150 Kelvin.  Pressure   1.00000 Atm.
 Atom     1 has atomic number  8 and mass  15.99491

 Molecular mass:   126.06808 amu.
 Principal axes and moments of inertia in atomic units:
                           1         2         3
     Eigenvalues --   667.682711157.974151507.18951
           X            0.99973  -0.00681   0.02226
           Y            0.00635   0.99977   0.02061
           Z           -0.02239  -0.02046   0.99954
 This molecule is an asymmetric top.
 Rotational symmetry number  1.
 Warning -- assumption of classical behavior for rotation
           may cause significant error
 Rotational temperatures (Kelvin)      0.12972     0.07480     0.05747
 Rotational constants (GHZ):           2.70299     1.55853     1.19742
 Zero-point vibrational energy     420394.4 (Joules/Mol)
                                  100.47667 (Kcal/Mol)
 Warning -- explicit consideration of  11 degrees of freedom as
           vibrations may cause significant error
 Vibrational temperatures:    137.84   256.07   382.98   408.01   445.23
          (Kelvin)            504.95   589.13   614.52   661.33   706.75
                              829.56   979.23  1067.51  1112.67  1170.87
                             1277.35  1296.21  1342.33  1395.51  1427.27
                             1441.70  1475.55  1520.97  1555.40  1593.74
                             1613.28  1676.38  1750.13  1815.30  1836.41
                             1878.48  1907.23  1954.13  1998.30  2030.40
                             2041.09  2062.11  2120.99  2138.47  2155.71
                             2492.71  4221.39  4296.06  4366.33  4384.00
                             4498.71  4512.17  4528.37  4547.72  4658.97
                             5446.02

 Zero-point correction=                           0.160120 (Hartree/Particle)
 Thermal correction to Energy=                    0.168134
 Thermal correction to Enthalpy=                  0.169078
 Thermal correction to Gibbs Free Energy=         0.127917
 Sum of electronic and zero-point Energies=           -423.006444
 Sum of electronic and thermal Energies=              -422.998429
 Sum of electronic and thermal Enthalpies=            -422.997485
 Sum of electronic and thermal Free Energies=         -423.038647

                     E (Thermal)             CV                S
                      KCal/Mol        Cal/Mol-Kelvin    Cal/Mol-Kelvin
 Total                  105.506             31.921             86.632
 Electronic               0.000              0.000              0.000
 Translational            0.889              2.981             40.409
 Rotational               0.889              2.981             28.546
 Vibrational            103.728             25.959             17.678
 Vibration     1          0.603              1.952              3.538
 Vibration     2          0.628              1.869              2.350
 Vibration     3          0.672              1.735              1.621
 Vibration     4          0.682              1.704              1.512
 Vibration     5          0.699              1.656              1.365
 Vibration     6          0.728              1.573              1.162
 Vibration     7          0.774              1.450              0.929
 Vibration     8          0.789              1.411              0.868
 Vibration     9          0.818              1.340              0.767
 Vibration    10          0.847              1.270              0.680
 Vibration    11          0.933              1.082              0.492

 Optimization completed.
    -- Stationary point found.
 Normal termination of Gaussian 09 at Mon Jan 27 19:53:52 2020.
