 Gaussian 09, Revision D.01,
 Gaussian 09:  ES64L-G09RevD.01 24-Apr-2013

 -----------------------------
 # b3lyp 6-31G(2df,p) opt Freq
 -----------------------------

 -----
 titel
 -----
 Symbolic Z-matrix:
 Charge =  0 Multiplicity = 1

 SCF Done:  E(RB3LYP) =  -423.172568193     A.U. after   14 cycles
 Optimization completed.
    -- Stationary point found.
 Normal termination of Gaussian 09 at Tue Jan 28 03:16:36 2020.

 ----------------------------------------------------------------------
 #N Geom=AllCheck Guess=TCheck SCRF=Check GenChk RB3LYP/6-31G(2df,p) Fr
 eq
 ----------------------------------------------------------------------

 Structure from the checkpoint file:  "/scratch/puck/g09_55e11f64-029e-4836-b0a7-d405dbfe3f75/Gau-46339.chk"
 -----
 titel
 -----
 Charge =  0 Multiplicity = 1

                         Standard orientation:
 ---------------------------------------------------------------------
 Center     Atomic      Atomic             Coordinates (Angstroms)
 Number     Number       Type             X           Y           Z
 ---------------------------------------------------------------------
      1          6           0       -1.672887    1.716241    0.090291
      2          6           0       -1.342135    0.346208   -0.489081
      3          6           0       -1.946845   -0.861971    0.318214
      4          6           0       -0.523941   -1.362148    0.576450
      5          8           0        0.100520   -1.566566   -0.679932
      6          6           0        0.063755   -0.215588   -0.176638
      7          6           0        1.363416    0.483832    0.017408
      8          6           0        2.594924   -0.389216    0.147025
      9          8           0        1.412122    1.695288    0.055835
     10          1           0       -1.105086    2.504079   -0.407467
     11          1           0       -2.742565    1.921705   -0.026035
     12          1           0       -1.434227    1.765458    1.157887
     13          1           0       -1.557429    0.315489   -1.560899
     14          1           0       -2.453967   -0.528915    1.227122
     15          1           0       -2.585519   -1.562661   -0.224470
     16          1           0       -0.128715   -1.913617    1.423303
     17          1           0        2.440860   -1.195210    0.870837
     18          1           0        2.805859   -0.870391   -0.813616
     19          1           0        3.441937    0.230141    0.444097
 ---------------------------------------------------------------------

 SCF Done:  E(RB3LYP) =  -423.172568193     A.U. after    1 cycles

 The electronic state is 1-A.
 Alpha  occ. eigenvalues --  -19.16792 -19.13107 -10.27522 -10.25488 -10.24715
 Alpha  occ. eigenvalues --  -10.20235 -10.19610 -10.18757 -10.17523  -1.09527
 Alpha  occ. eigenvalues --   -1.04055  -0.82076  -0.75367  -0.71723  -0.67562
 Alpha  occ. eigenvalues --   -0.62901  -0.58924  -0.53257  -0.49044  -0.47209
 Alpha  occ. eigenvalues --   -0.46484  -0.44696  -0.42723  -0.42358  -0.40959
 Alpha  occ. eigenvalues --   -0.39324  -0.38816  -0.36601  -0.35144  -0.34591
 Alpha  occ. eigenvalues --   -0.33505  -0.30160  -0.26737  -0.24693
 Alpha virt. eigenvalues --   -0.02792   0.09142   0.09831   0.10303   0.12249
 Alpha virt. eigenvalues --    0.12614   0.13263   0.14664   0.15668   0.17176
 Alpha virt. eigenvalues --    0.17709   0.17830   0.18674   0.19217   0.21162

 Mulliken charges:
               1
     1  C   -0.399458
     2  C   -0.060231
     3  C   -0.259503
     4  C   -0.039547
     5  O   -0.276472
     6  C    0.328883
     7  C    0.270802
     8  C   -0.482600
     9  O   -0.306178
    10  H    0.142840
    11  H    0.110443
    12  H    0.114966
    13  H    0.086934
    14  H    0.111524
    15  H    0.114824
    16  H    0.110292
    17  H    0.136910
    18  H    0.156852
    19  H    0.138720
 Sum of Mulliken charges =   0.00000

 Dipole moment (field-independent basis, Debye):
    X=             -0.9501    Y=             -1.5775    Z=              1.0914  Tot=              2.1406
 Quadrupole moment (field-independent basis, Debye-Ang):
   XX=            -50.0038   YY=            -58.8443   ZZ=            -51.8629
   XY=             -3.0897   XZ=             -0.0902   YZ=             -3.1673

  Exact polarizability:  87.799   1.652  81.607  -0.486  -2.904  60.466
 Approx polarizability: 111.819   7.238 132.952  -3.545  -2.845  97.535

                      1                      2                      3
                      A                      A                      A
 Frequencies --     55.9307               117.7857               133.7604
 Red. masses --      3.7843                 1.0565                 2.7390
 Frc consts  --      0.0070                 0.0086                 0.0289
 IR Inten    --      3.8500                 0.0147                 0.3184

                      4                      5                      6
                      A                      A                      A
 Frequencies --    172.6057               220.9545               257.1232
 Red. masses --      3.7997                 2.4184                 1.2165
 Frc consts  --      0.0667                 0.0696                 0.0474
 IR Inten    --      5.9184                 2.7746                 0.1288

                      7                      8                      9
                      A                      A                      A
 Frequencies --    300.8590               382.8064               425.6915
 Red. masses --      3.0158                 3.7354                 2.1743
 Frc consts  --      0.1608                 0.3225                 0.2321
 IR Inten    --      2.3560                 0.9528                 1.1541

                     10                     11                     12
                      A                      A                      A
 Frequencies --    484.8478               518.3427               596.7560
 Red. masses --      4.0219                 5.3993                 2.8769
 Frc consts  --      0.5571                 0.8547                 0.6036
 IR Inten    --     17.8821                 4.3480                 4.1600

                     13                     14                     15
                      A                      A                      A
 Frequencies --    624.4807               735.7628               838.4053
 Red. masses --      3.1545                 2.9723                 3.6418
 Frc consts  --      0.7248                 0.9480                 1.5083
 IR Inten    --     11.2519                 2.8488                 2.6581

                     16                     17                     18
                      A                      A                      A
 Frequencies --    853.6758               859.5824               906.5513
 Red. masses --      2.0131                 4.1774                 2.6030
 Frc consts  --      0.8644                 1.8186                 1.2604
 IR Inten    --      3.2883                30.5585                10.3275

                     19                     20                     21
                      A                      A                      A
 Frequencies --    927.4085               971.8732              1009.6058
 Red. masses --      1.5904                 2.0952                 1.6189
 Frc consts  --      0.8059                 1.1660                 0.9723
 IR Inten    --      3.1224                22.7978                 6.5146

                     22                     23                     24
                      A                      A                      A
 Frequencies --   1028.5057              1043.3841              1088.2266
 Red. masses --      1.5938                 1.9632                 1.7562
 Frc consts  --      0.9934                 1.2592                 1.2254
 IR Inten    --      3.3903                 1.1414                 0.7254

                     25                     26                     27
                      A                      A                      A
 Frequencies --   1116.6251              1133.8227              1196.6333
 Red. masses --      2.0203                 2.1355                 1.5000
 Frc consts  --      1.4842                 1.6175                 1.2655
 IR Inten    --      0.2339                33.8163                 1.5204

                     28                     29                     30
                      A                      A                      A
 Frequencies --   1214.4816              1242.3845              1276.7481
 Red. masses --      1.8963                 1.4080                 1.6081
 Frc consts  --      1.6479                 1.2804                 1.5444
 IR Inten    --     14.8135                 7.2940                 3.1435

                     31                     32                     33
                      A                      A                      A
 Frequencies --   1309.0466              1346.8465              1382.4829
 Red. masses --      2.0955                 1.6104                 1.4215
 Frc consts  --      2.1157                 1.7211                 1.6007
 IR Inten    --     17.4681                 5.1059                 9.2316

                     34                     35                     36
                      A                      A                      A
 Frequencies --   1405.5782              1415.2805              1455.7577
 Red. masses --      3.4326                 1.2937                 1.0701
 Frc consts  --      3.9956                 1.5268                 1.3362
 IR Inten    --     88.0860                11.2805                12.2154

                     37                     38                     39
                      A                      A                      A
 Frequencies --   1470.1062              1473.4314              1489.8461
 Red. masses --      1.0577                 1.1459                 1.0456
 Frc consts  --      1.3468                 1.4658                 1.3673
 IR Inten    --      5.7100                 2.1291                 7.4182

                     40                     41                     42
                      A                      A                      A
 Frequencies --   1495.7488              1786.4191              3036.1194
 Red. masses --      1.0516                11.1858                 1.0380
 Frc consts  --      1.3861                21.0322                 5.6375
 IR Inten    --      2.1420               161.9691                20.9761

                     43                     44                     45
                      A                      A                      A
 Frequencies --   3047.3613              3064.5059              3068.4078
 Red. masses --      1.0355                 1.0681                 1.0754
 Frc consts  --      5.6655                 5.9100                 5.9657
 IR Inten    --      1.5001                24.1673                16.0651

                     46                     47                     48
                      A                      A                      A
 Frequencies --   3099.7824              3110.2915              3124.1848
 Red. masses --      1.1008                 1.0979                 1.1080
 Frc consts  --      6.2320                 6.2576                 6.3720
 IR Inten    --     33.6580                 5.4563                19.6478

                     49                     50                     51
                      A                      A                      A
 Frequencies --   3137.1815              3155.3264              3173.3895
 Red. masses --      1.0990                 1.1037                 1.0934
 Frc consts  --      6.3727                 6.4744                 6.4875
 IR Inten    --     11.7335                10.3937                18.6067

 - Thermochemistry -
 -------------------
 Temperature   298.150 Kelvin.  Pressure   1.00000 Atm.
 Atom     1 has atomic number  6 and mass  12.00000

 Molecular mass:   126.06808 amu.
 Principal axes and moments of inertia in atomic units:
                           1         2         3
     Eigenvalues --   731.660641133.498611683.85366
           X            0.99604  -0.08895   0.00064
           Y            0.08895   0.99588  -0.01767
           Z            0.00093   0.01766   0.99984
 This molecule is an asymmetric top.
 Rotational symmetry number  1.
 Warning -- assumption of classical behavior for rotation
           may cause significant error
 Rotational temperatures (Kelvin)      0.11838     0.07641     0.05144
 Rotational constants (GHZ):           2.46664     1.59219     1.07179
 Zero-point vibrational energy     411412.0 (Joules/Mol)
                                   98.32983 (Kcal/Mol)
 Warning -- explicit consideration of  12 degrees of freedom as
           vibrations may cause significant error
 Vibrational temperatures:     80.47   169.47   192.45   248.34   317.90
          (Kelvin)            369.94   432.87   550.77   612.47   697.59
                              745.78   858.60   898.49  1058.60  1206.28
                             1228.25  1236.75  1304.32  1334.33  1398.31
                             1452.60  1479.79  1501.20  1565.71  1606.57
                             1631.32  1721.69  1747.37  1787.51  1836.95
                             1883.42  1937.81  1989.08  2022.31  2036.27
                             2094.51  2115.15  2119.94  2143.55  2152.05
                             2570.26  4368.29  4384.47  4409.14  4414.75
                             4459.89  4475.01  4495.00  4513.70  4539.81
                             4565.79

 Zero-point correction=                           0.156699 (Hartree/Particle)
 Thermal correction to Energy=                    0.165860
 Thermal correction to Enthalpy=                  0.166805
 Thermal correction to Gibbs Free Energy=         0.122534
 Sum of electronic and zero-point Energies=           -423.015870
 Sum of electronic and thermal Energies=              -423.006708
 Sum of electronic and thermal Enthalpies=            -423.005764
 Sum of electronic and thermal Free Energies=         -423.050034

                     E (Thermal)             CV                S
                      KCal/Mol        Cal/Mol-Kelvin    Cal/Mol-Kelvin
 Total                  104.079             33.789             93.174
 Electronic               0.000              0.000              0.000
 Translational            0.889              2.981             40.409
 Rotational               0.889              2.981             28.725
 Vibrational            102.302             27.827             24.040
 Vibration     1          0.596              1.975              4.596
 Vibration     2          0.608              1.935              3.136
 Vibration     3          0.613              1.920              2.891
 Vibration     4          0.626              1.876              2.407
 Vibration     5          0.648              1.809              1.951
 Vibration     6          0.667              1.751              1.681
 Vibration     7          0.693              1.672              1.412
 Vibration     8          0.752              1.507              1.028
 Vibration     9          0.788              1.414              0.873
 Vibration    10          0.841              1.284              0.697
 Vibration    11          0.873              1.209              0.614
 Vibration    12          0.955              1.039              0.455

 Optimization completed.
    -- Stationary point found.
 Normal termination of Gaussian 09 at Tue Jan 28 05:09:51 2020.
