 Gaussian 09, Revision D.01,
 Gaussian 09:  ES64L-G09RevD.01 24-Apr-2013

 -----------------------------
 # b3lyp 6-31G(2df,p) opt Freq
 -----------------------------

 -----
 titel
 -----
 Symbolic Z-matrix:
 Charge =  0 Multiplicity = 1

 SCF Done:  E(RB3LYP) =  -423.207400904     A.U. after   14 cycles
 Optimization completed.
    -- Stationary point found.
 Normal termination of Gaussian 09 at Tue Jan 28 03:24:23 2020.

 ----------------------------------------------------------------------
 #N Geom=AllCheck Guess=TCheck SCRF=Check GenChk RB3LYP/6-31G(2df,p) Fr
 eq
 ----------------------------------------------------------------------

 Structure from the checkpoint file:  "/scratch/puck/g09_81452564-2253-47b3-b3e4-2321044ded2e/Gau-89243.chk"
 -----
 titel
 -----
 Charge =  0 Multiplicity = 1

                         Standard orientation:
 ---------------------------------------------------------------------
 Center     Atomic      Atomic             Coordinates (Angstroms)
 Number     Number       Type             X           Y           Z
 ---------------------------------------------------------------------
      1          8           0       -2.313778   -0.997554   -0.042937
      2          6           0       -1.040594   -0.582838   -0.447824
      3          6           0        0.064512   -1.481186    0.150223
      4          6           0        1.469757   -0.979882   -0.171646
      5          6           0        2.194061   -0.099677    0.819460
      6          6           0        1.697286    0.492842   -0.472128
      7          6           0        0.526014    1.467441   -0.480703
      8          6           0       -0.785624    0.858615   -0.029736
      9          8           0       -1.619668    1.458729    0.615332
     10          1           0       -2.689043   -0.235929    0.429126
     11          1           0       -0.955475   -0.622170   -1.547631
     12          1           0       -0.102892   -1.533488    1.231708
     13          1           0       -0.081339   -2.494620   -0.233188
     14          1           0        2.088495   -1.670691   -0.734756
     15          1           0        1.661575    0.157463    1.731249
     16          1           0        3.262681   -0.226565    0.952281
     17          1           0        2.460355    0.716161   -1.211052
     18          1           0        0.719752    2.367514    0.111137
     19          1           0        0.350974    1.801038   -1.513903
 ---------------------------------------------------------------------

 SCF Done:  E(RB3LYP) =  -423.207400904     A.U. after    1 cycles

 The electronic state is 1-A.
 Alpha  occ. eigenvalues --  -19.14613 -19.12817 -10.27546 -10.23774 -10.20645
 Alpha  occ. eigenvalues --  -10.20370 -10.20234 -10.19258 -10.19198  -1.06122
 Alpha  occ. eigenvalues --   -1.01061  -0.88052  -0.77107  -0.75388  -0.64902
 Alpha  occ. eigenvalues --   -0.59973  -0.58764  -0.54526  -0.50906  -0.49547
 Alpha  occ. eigenvalues --   -0.46793  -0.45053  -0.44587  -0.43515  -0.40767
 Alpha  occ. eigenvalues --   -0.39570  -0.37353  -0.36635  -0.35420  -0.33908
 Alpha  occ. eigenvalues --   -0.29495  -0.29074  -0.26380  -0.25656
 Alpha virt. eigenvalues --   -0.02570   0.07601   0.09724   0.11285   0.11611
 Alpha virt. eigenvalues --    0.12267   0.12831   0.14787   0.16000   0.17474
 Alpha virt. eigenvalues --    0.17758   0.18651   0.21571   0.22163   0.23715

 Mulliken charges:
               1
     1  O   -0.441412
     2  C    0.059388
     3  C   -0.255260
     4  C   -0.038551
     5  C   -0.283873
     6  C   -0.025598
     7  C   -0.325876
     8  C    0.358644
     9  O   -0.337785
    10  H    0.290167
    11  H    0.088208
    12  H    0.115177
    13  H    0.117702
    14  H    0.091537
    15  H    0.117727
    16  H    0.115177
    17  H    0.091532
    18  H    0.129072
    19  H    0.134025
 Sum of Mulliken charges =   0.00000

 Dipole moment (field-independent basis, Debye):
    X=              2.9078    Y=              0.0732    Z=             -1.0997  Tot=              3.1097
 Quadrupole moment (field-independent basis, Debye-Ang):
   XX=            -56.4571   YY=            -55.8266   ZZ=            -51.6410
   XY=             -0.6479   XZ=             -0.0814   YZ=             -1.8422

  Exact polarizability:  82.985  -0.382  75.549  -2.540   1.063  64.585
 Approx polarizability: 113.155  -2.951 111.538  -7.987   5.503 104.251

                      1                      2                      3
                      A                      A                      A
 Frequencies --     60.6809               111.4448               273.2211
 Red. masses --      2.8558                 4.8856                 2.7138
 Frc consts  --      0.0062                 0.0358                 0.1194
 IR Inten    --      0.6930                 0.2414                 0.9976

                      4                      5                      6
                      A                      A                      A
 Frequencies --    301.3344               348.3218               367.5104
 Red. masses --      3.0219                 3.4213                 3.1242
 Frc consts  --      0.1617                 0.2446                 0.2486
 IR Inten    --      8.5398                12.1734                 1.7621

                      7                      8                      9
                      A                      A                      A
 Frequencies --    420.8501               453.0554               477.0057
 Red. masses --      4.4185                 1.2140                 3.0690
 Frc consts  --      0.4611                 0.1468                 0.4114
 IR Inten    --     12.1853                47.0781                 1.9557

                     10                     11                     12
                      A                      A                      A
 Frequencies --    544.2080               602.7871               723.4173
 Red. masses --      3.3656                 3.2392                 2.4298
 Frc consts  --      0.5873                 0.6935                 0.7492
 IR Inten    --      8.2381                 3.6159                13.0893

                     13                     14                     15
                      A                      A                      A
 Frequencies --    751.5346               799.9255               812.5650
 Red. masses --      2.7473                 2.4368                 3.1228
 Frc consts  --      0.9142                 0.9187                 1.2148
 IR Inten    --      2.4922                 6.4096                 0.9419

                     16                     17                     18
                      A                      A                      A
 Frequencies --    859.3788               887.1869               930.8220
 Red. masses --      1.3366                 1.9417                 1.4847
 Frc consts  --      0.5816                 0.9004                 0.7579
 IR Inten    --      3.3397                 7.2372                 0.1706

                     19                     20                     21
                      A                      A                      A
 Frequencies --    997.8938              1019.1528              1065.4753
 Red. masses --      2.5732                 3.1189                 1.3300
 Frc consts  --      1.5097                 1.9087                 0.8896
 IR Inten    --      1.9896                 4.2094                 3.3731

                     22                     23                     24
                      A                      A                      A
 Frequencies --   1074.1874              1105.5551              1117.6400
 Red. masses --      3.3859                 1.6731                 1.2881
 Frc consts  --      2.3019                 1.2048                 0.9480
 IR Inten    --      9.7136                16.7717                16.3911

                     25                     26                     27
                      A                      A                      A
 Frequencies --   1127.3134              1138.9093              1171.4270
 Red. masses --      1.9533                 1.6586                 1.8800
 Frc consts  --      1.4625                 1.2676                 1.5200
 IR Inten    --     72.0180                48.8684                10.3756

                     28                     29                     30
                      A                      A                      A
 Frequencies --   1213.4963              1238.6184              1240.5650
 Red. masses --      1.5831                 1.4495                 1.3314
 Frc consts  --      1.3735                 1.3102                 1.2072
 IR Inten    --      3.4824                 0.5539                 5.6801

                     31                     32                     33
                      A                      A                      A
 Frequencies --   1279.4485              1316.2368              1321.9913
 Red. masses --      1.2864                 1.4071                 1.5631
 Frc consts  --      1.2407                 1.4363                 1.6095
 IR Inten    --     24.8632                13.6596                11.2185

                     34                     35                     36
                      A                      A                      A
 Frequencies --   1363.3476              1375.3280              1412.6953
 Red. masses --      1.5889                 1.4505                 1.7458
 Frc consts  --      1.7401                 1.6165                 2.0528
 IR Inten    --      8.2702                 2.8703                 2.6416

                     37                     38                     39
                      A                      A                      A
 Frequencies --   1443.9095              1460.2415              1488.6741
 Red. masses --      1.3759                 1.0983                 1.2121
 Frc consts  --      1.6901                 1.3798                 1.5827
 IR Inten    --     64.4529                17.4205                 0.3794

                     40                     41                     42
                      A                      A                      A
 Frequencies --   1502.8865              1798.5682              2958.1182
 Red. masses --      1.1695                11.4132                 1.0804
 Frc consts  --      1.5563                21.7525                 5.5700
 IR Inten    --      4.7995               153.5017                27.8118

                     43                     44                     45
                      A                      A                      A
 Frequencies --   3014.7610              3046.8480              3080.6032
 Red. masses --      1.0661                 1.0625                 1.0944
 Frc consts  --      5.7090                 5.8116                 6.1190
 IR Inten    --     12.4637                25.8908                13.5421

                     46                     47                     48
                      A                      A                      A
 Frequencies --   3093.4439              3122.1272              3148.5399
 Red. masses --      1.1018                 1.0553                 1.0880
 Frc consts  --      6.2118                 6.0610                 6.3550
 IR Inten    --     12.9452                11.7818                10.2290

                     49                     50                     51
                      A                      A                      A
 Frequencies --   3159.5595              3210.0058              3671.2510
 Red. masses --      1.0909                 1.1151                 1.0644
 Frc consts  --      6.4161                 6.7697                 8.4528
 IR Inten    --     21.2303                13.8494                64.4575

 - Thermochemistry -
 -------------------
 Temperature   298.150 Kelvin.  Pressure   1.00000 Atm.
 Atom     1 has atomic number  8 and mass  15.99491

 Molecular mass:   126.06808 amu.
 Principal axes and moments of inertia in atomic units:
                           1         2         3
     Eigenvalues --   664.417831204.177691618.37968
           X            0.99993   0.01086   0.00429
           Y           -0.01076   0.99972  -0.02112
           Z           -0.00452   0.02108   0.99977
 This molecule is an asymmetric top.
 Rotational symmetry number  1.
 Warning -- assumption of classical behavior for rotation
           may cause significant error
 Rotational temperatures (Kelvin)      0.13036     0.07193     0.05352
 Rotational constants (GHZ):           2.71627     1.49873     1.11515
 Zero-point vibrational energy     421708.0 (Joules/Mol)
                                  100.79063 (Kcal/Mol)
 Warning -- explicit consideration of  11 degrees of freedom as
           vibrations may cause significant error
 Vibrational temperatures:     87.31   160.34   393.10   433.55   501.16
          (Kelvin)            528.76   605.51   651.84   686.30   782.99
                              867.28  1040.83  1081.29  1150.91  1169.10
                             1236.45  1276.46  1339.24  1435.74  1466.33
                             1532.98  1545.51  1590.65  1608.03  1621.95
                             1638.63  1685.42  1745.95  1782.09  1784.89
                             1840.84  1893.77  1902.05  1961.55  1978.79
                             2032.55  2077.46  2100.96  2141.87  2162.32
                             2587.74  4256.07  4337.56  4383.73  4432.30
                             4450.77  4492.04  4530.04  4545.90  4618.48
                             5282.10

 Zero-point correction=                           0.160620 (Hartree/Particle)
 Thermal correction to Energy=                    0.168582
 Thermal correction to Enthalpy=                  0.169526
 Thermal correction to Gibbs Free Energy=         0.127880
 Sum of electronic and zero-point Energies=           -423.046781
 Sum of electronic and thermal Energies=              -423.038819
 Sum of electronic and thermal Enthalpies=            -423.037875
 Sum of electronic and thermal Free Energies=         -423.079521

                     E (Thermal)             CV                S
                      KCal/Mol        Cal/Mol-Kelvin    Cal/Mol-Kelvin
 Total                  105.787             31.286             87.651
 Electronic               0.000              0.000              0.000
 Translational            0.889              2.981             40.409
 Rotational               0.889              2.981             28.650
 Vibrational            104.009             25.324             18.592
 Vibration     1          0.597              1.973              4.435
 Vibration     2          0.607              1.940              3.244
 Vibration     3          0.676              1.723              1.576
 Vibration     4          0.693              1.671              1.409
 Vibration     5          0.726              1.579              1.174
 Vibration     6          0.740              1.539              1.090
 Vibration     7          0.783              1.425              0.889
 Vibration     8          0.812              1.354              0.787
 Vibration     9          0.834              1.301              0.718
 Vibration    10          0.899              1.152              0.556
 Vibration    11          0.961              1.026              0.445

 Normal termination of Gaussian 09 at Tue Jan 28 04:08:10 2020.
