 Gaussian 09, Revision D.01,
 Gaussian 09:  ES64L-G09RevD.01 24-Apr-2013

 -----------------------------
 # b3lyp 6-31G(2df,p) opt Freq
 -----------------------------

 -----
 titel
 -----
 Symbolic Z-matrix:
 Charge =  0 Multiplicity = 1

 SCF Done:  E(RB3LYP) =  -423.193674205     A.U. after   13 cycles
 Optimization completed.
    -- Stationary point found.
 Normal termination of Gaussian 09 at Mon Jan 27 18:32:33 2020.

 ----------------------------------------------------------------------
 #N Geom=AllCheck Guess=TCheck SCRF=Check GenChk RB3LYP/6-31G(2df,p) Fr
 eq
 ----------------------------------------------------------------------

 Structure from the checkpoint file:  "/scratch/puck/g09_016e08a8-16c0-4bc7-b054-5d267e1668ca/Gau-18609.chk"
 -----
 titel
 -----
 Charge =  0 Multiplicity = 1

                         Standard orientation:
 ---------------------------------------------------------------------
 Center     Atomic      Atomic             Coordinates (Angstroms)
 Number     Number       Type             X           Y           Z
 ---------------------------------------------------------------------
      1          6           0       -2.433823   -0.132919    0.734299
      2          6           0       -1.074698    0.027014    0.104438
      3          6           0       -0.634842   -1.039452   -0.958185
      4          8           0        0.786663   -0.949351   -0.914062
      5          6           0        1.048772    0.042302    0.126063
      6          6           0        2.419212   -0.160210    0.705563
      7          8           0        0.000523   -0.186796    1.044317
      8          6           0        0.650523    1.385753   -0.491810
      9          6           0       -0.681502    1.369195   -0.509828
     10          1           0       -2.585796    0.616749    1.515566
     11          1           0       -3.219347   -0.009701   -0.017910
     12          1           0       -2.536400   -1.126087    1.180711
     13          1           0       -0.954257   -2.041947   -0.649755
     14          1           0       -1.010123   -0.825059   -1.964877
     15          1           0        2.611992    0.581703    1.484271
     16          1           0        2.495294   -1.161874    1.133849
     17          1           0        3.172834   -0.054566   -0.078744
     18          1           0        1.335333    2.097117   -0.932835
     19          1           0       -1.368877    2.062737   -0.975556
 ---------------------------------------------------------------------

 SCF Done:  E(RB3LYP) =  -423.193674205     A.U. after    1 cycles

 The electronic state is 1-A.
 Alpha  occ. eigenvalues --  -19.13988 -19.13327 -10.27906 -10.24490 -10.22456
 Alpha  occ. eigenvalues --  -10.18502 -10.18466 -10.18302 -10.17840  -1.08932
 Alpha  occ. eigenvalues --   -0.98134  -0.80103  -0.78518  -0.72945  -0.67247
 Alpha  occ. eigenvalues --   -0.60562  -0.57735  -0.55320  -0.51082  -0.48592
 Alpha  occ. eigenvalues --   -0.44924  -0.44557  -0.42750  -0.41520  -0.40819
 Alpha  occ. eigenvalues --   -0.38325  -0.37471  -0.36603  -0.36078  -0.34190
 Alpha  occ. eigenvalues --   -0.31311  -0.27916  -0.26048  -0.24089
 Alpha virt. eigenvalues --    0.00524   0.09608   0.10694   0.12830   0.13171
 Alpha virt. eigenvalues --    0.14064   0.14717   0.15493   0.16301   0.17348
 Alpha virt. eigenvalues --    0.18118   0.18303   0.19729   0.21591   0.23487

 Mulliken charges:
               1
     1  C   -0.496135
     2  C    0.294731
     3  C   -0.102407
     4  O   -0.304369
     5  C    0.434853
     6  C   -0.494668
     7  O   -0.284469
     8  C   -0.112310
     9  C   -0.141720
    10  H    0.135082
    11  H    0.122766
    12  H    0.131059
    13  H    0.102004
    14  H    0.097901
    15  H    0.131370
    16  H    0.137877
    17  H    0.132547
    18  H    0.110393
    19  H    0.105496
 Sum of Mulliken charges =   0.00000

 Dipole moment (field-independent basis, Debye):
    X=             -0.9937    Y=              0.9850    Z=             -0.4601  Tot=              1.4729
 Quadrupole moment (field-independent basis, Debye-Ang):
   XX=            -47.5229   YY=            -52.6221   ZZ=            -55.4573
   XY=              1.9273   XZ=              2.0032   YZ=             -1.7084

  Exact polarizability:  91.189   2.486  71.583   2.124  -2.255  62.533
 Approx polarizability: 130.810   1.768 105.990   2.068  -1.543  96.125

                      1                      2                      3
                      A                      A                      A
 Frequencies --    180.9500               188.2120               231.2583
 Red. masses --      1.0294                 1.0398                 2.4525
 Frc consts  --      0.0199                 0.0217                 0.0773
 IR Inten    --      0.0608                 0.0756                 1.1880

                      4                      5                      6
                      A                      A                      A
 Frequencies --    259.7912               266.2050               338.1126
 Red. masses --      2.6636                 2.5659                 2.5664
 Frc consts  --      0.1059                 0.1071                 0.1729
 IR Inten    --      2.7586                 2.8374                 2.1917

                      7                      8                      9
                      A                      A                      A
 Frequencies --    382.6133               423.2006               518.0534
 Red. masses --      2.3592                 2.9677                 3.1556
 Frc consts  --      0.2035                 0.3132                 0.4990
 IR Inten    --      2.0464                 4.6851                 1.6860

                     10                     11                     12
                      A                      A                      A
 Frequencies --    608.8183               635.1420               658.1659
 Red. masses --      3.9101                 4.0193                 4.4815
 Frc consts  --      0.8539                 0.9553                 1.1438
 IR Inten    --      2.1266                 2.8822                 9.9247

                     13                     14                     15
                      A                      A                      A
 Frequencies --    719.4736               730.5041               789.0988
 Red. masses --      2.5929                 3.0163                 3.2151
 Frc consts  --      0.7908                 0.9483                 1.1795
 IR Inten    --      3.0865                 2.2339                76.0293

                     16                     17                     18
                      A                      A                      A
 Frequencies --    840.9487               862.8626               880.6852
 Red. masses --      3.6362                 4.5326                 2.0111
 Frc consts  --      1.5151                 1.9883                 0.9190
 IR Inten    --     18.1476                13.6276                 0.5024

                     19                     20                     21
                      A                      A                      A
 Frequencies --    885.6271               909.2810               923.6024
 Red. masses --      2.5037                 2.1139                 1.5031
 Frc consts  --      1.1570                 1.0298                 0.7555
 IR Inten    --     13.5631                23.8431                 0.9055

                     22                     23                     24
                      A                      A                      A
 Frequencies --   1003.5728              1023.4490              1062.7318
 Red. masses --      1.6967                 3.1671                 1.1234
 Frc consts  --      1.0068                 1.9545                 0.7475
 IR Inten    --     15.7216                57.8973                 8.6502

                     25                     26                     27
                      A                      A                      A
 Frequencies --   1112.0424              1144.4648              1172.3456
 Red. masses --      2.0078                 1.8846                 1.9104
 Frc consts  --      1.4629                 1.4543                 1.5470
 IR Inten    --     17.1083                15.3536                 9.4986

                     28                     29                     30
                      A                      A                      A
 Frequencies --   1196.4633              1229.4902              1257.3705
 Red. masses --      1.5826                 2.4207                 2.3962
 Frc consts  --      1.3348                 2.1559                 2.2320
 IR Inten    --      9.7704                34.3351                39.8454

                     31                     32                     33
                      A                      A                      A
 Frequencies --   1307.1103              1348.6770              1368.8193
 Red. masses --      1.6776                 2.0411                 1.7415
 Frc consts  --      1.6888                 2.1874                 1.9225
 IR Inten    --      6.5074                41.0229                 3.9648

                     34                     35                     36
                      A                      A                      A
 Frequencies --   1414.7319              1428.8378              1480.7068
 Red. masses --      1.3966                 1.9849                 1.0512
 Frc consts  --      1.6469                 2.3875                 1.3579
 IR Inten    --     24.2209                22.9920                 2.4694

                     37                     38                     39
                      A                      A                      A
 Frequencies --   1482.4855              1485.7128              1494.8084
 Red. masses --      1.0517                 1.0493                 1.0488
 Frc consts  --      1.3618                 1.3646                 1.3808
 IR Inten    --      2.9097                 2.4913                 3.3018

                     40                     41                     42
                      A                      A                      A
 Frequencies --   1511.8964              1642.2638              3024.0645
 Red. masses --      1.0895                 6.7758                 1.0554
 Frc consts  --      1.4673                10.7670                 5.6866
 IR Inten    --      0.6336                 4.6898                48.2610

                     43                     44                     45
                      A                      A                      A
 Frequencies --   3043.7295              3057.5143              3073.5029
 Red. masses --      1.0355                 1.0349                 1.1100
 Frc consts  --      5.6519                 5.6999                 6.1781
 IR Inten    --     19.4929                 9.1039                30.7432

                     46                     47                     48
                      A                      A                      A
 Frequencies --   3114.9487              3121.9349              3134.5587
 Red. masses --      1.1008                 1.1022                 1.1018
 Frc consts  --      6.2930                 6.3295                 6.3784
 IR Inten    --     15.0380                13.7242                10.4350

                     49                     50                     51
                      A                      A                      A
 Frequencies --   3141.3622              3212.4527              3238.9937
 Red. masses --      1.1025                 1.0863                 1.1091
 Frc consts  --      6.4099                 6.6049                 6.8554
 IR Inten    --      9.6171                 3.2069                 7.2283

 - Thermochemistry -
 -------------------
 Temperature   298.150 Kelvin.  Pressure   1.00000 Atm.
 Atom     1 has atomic number  6 and mass  12.00000

 Molecular mass:   126.06808 amu.
 Principal axes and moments of inertia in atomic units:
                           1         2         3
     Eigenvalues --   589.005781143.360651205.39946
           X            0.99978   0.01737   0.01153
           Y           -0.01607   0.99435  -0.10496
           Z           -0.01329   0.10475   0.99441
 This molecule is an asymmetric top.
 Rotational symmetry number  1.
 Warning -- assumption of classical behavior for rotation
           may cause significant error
 Rotational temperatures (Kelvin)      0.14705     0.07575     0.07185
 Rotational constants (GHZ):           3.06405     1.57845     1.49721
 Zero-point vibrational energy     416083.0 (Joules/Mol)
                                   99.44623 (Kcal/Mol)
 Warning -- explicit consideration of  10 degrees of freedom as
           vibrations may cause significant error
 Vibrational temperatures:    260.35   270.79   332.73   373.78   383.01
          (Kelvin)            486.47   550.49   608.89   745.36   875.95
                              913.83   946.95  1035.16  1051.03  1135.34
                             1209.94  1241.47  1267.11  1274.22  1308.25
                             1328.86  1443.92  1472.51  1529.03  1599.98
                             1646.63  1686.74  1721.44  1768.96  1809.07
                             1880.64  1940.44  1969.42  2035.48  2055.78
                             2130.40  2132.96  2137.61  2150.69  2175.28
                             2362.85  4350.95  4379.24  4399.08  4422.08
                             4481.71  4491.76  4509.93  4519.71  4622.00
                             4660.18

 Zero-point correction=                           0.158478 (Hartree/Particle)
 Thermal correction to Energy=                    0.166470
 Thermal correction to Enthalpy=                  0.167414
 Thermal correction to Gibbs Free Energy=         0.126741
 Sum of electronic and zero-point Energies=           -423.035197
 Sum of electronic and thermal Energies=              -423.027204
 Sum of electronic and thermal Enthalpies=            -423.026260
 Sum of electronic and thermal Free Energies=         -423.066933

                     E (Thermal)             CV                S
                      KCal/Mol        Cal/Mol-Kelvin    Cal/Mol-Kelvin
 Total                  104.462             32.310             85.604
 Electronic               0.000              0.000              0.000
 Translational            0.889              2.981             40.409
 Rotational               0.889              2.981             28.186
 Vibrational            102.684             26.348             17.009
 Vibration     1          0.630              1.866              2.319
 Vibration     2          0.633              1.856              2.245
 Vibration     3          0.653              1.793              1.869
 Vibration     4          0.668              1.746              1.663
 Vibration     5          0.672              1.735              1.621
 Vibration     6          0.718              1.599              1.221
 Vibration     7          0.752              1.507              1.029
 Vibration     8          0.785              1.420              0.881
 Vibration     9          0.873              1.210              0.614
 Vibration    10          0.968              1.013              0.435

 Optimization completed.
    -- Stationary point found.
 Normal termination of Gaussian 09 at Mon Jan 27 20:21:50 2020.
