 Gaussian 09, Revision D.01,
 Gaussian 09:  ES64L-G09RevD.01 24-Apr-2013

 -----------------------------
 # b3lyp 6-31G(2df,p) opt Freq
 -----------------------------

 -----
 titel
 -----
 Symbolic Z-matrix:
 Charge =  0 Multiplicity = 1

 SCF Done:  E(RB3LYP) =  -423.211305618     A.U. after   14 cycles
 Optimization completed.
    -- Stationary point found.
 Normal termination of Gaussian 09 at Mon Jan 27 14:05:37 2020.

 ----------------------------------------------------------------------
 #N Geom=AllCheck Guess=TCheck SCRF=Check GenChk RB3LYP/6-31G(2df,p) Fr
 eq
 ----------------------------------------------------------------------

 Structure from the checkpoint file:  "/scratch/puck/g09_7ebc5c03-d3aa-4bc9-ac30-900b69fdb0dd/Gau-31244.chk"
 -----
 titel
 -----
 Charge =  0 Multiplicity = 1

                         Standard orientation:
 ---------------------------------------------------------------------
 Center     Atomic      Atomic             Coordinates (Angstroms)
 Number     Number       Type             X           Y           Z
 ---------------------------------------------------------------------
      1          6           0        1.477834   -1.708345   -0.180507
      2          6           0        1.366604   -0.237001    0.151467
      3          8           0        2.259220    0.388880    0.675066
      4          6           0        0.022851    0.466631   -0.172581
      5          6           0        0.295474    1.808834   -0.862196
      6          8           0       -0.793016   -0.360450   -1.012739
      7          6           0       -2.006925   -0.719042   -0.354406
      8          6           0       -1.917457   -0.076210    1.000317
      9          6           0       -0.776063    0.592745    1.106253
     10          1           0        2.458482   -2.075422    0.124395
     11          1           0        0.690593   -2.271911    0.331548
     12          1           0        1.321967   -1.865904   -1.251471
     13          1           0        0.741570    1.638556   -1.846469
     14          1           0       -0.639604    2.359208   -0.993084
     15          1           0        0.990239    2.400855   -0.263459
     16          1           0       -2.869471   -0.359670   -0.936640
     17          1           0       -2.091529   -1.815504   -0.297081
     18          1           0       -2.694518   -0.159941    1.749465
     19          1           0       -0.411262    1.156632    1.954102
 ---------------------------------------------------------------------

 SCF Done:  E(RB3LYP) =  -423.211305618     A.U. after    1 cycles

 The electronic state is 1-A.
 Alpha  occ. eigenvalues --  -19.14422 -19.12827 -10.26602 -10.24707 -10.23995
 Alpha  occ. eigenvalues --  -10.19766 -10.19534 -10.18310 -10.17574  -1.04828
 Alpha  occ. eigenvalues --   -1.03458  -0.80016  -0.77997  -0.73618  -0.68079
 Alpha  occ. eigenvalues --   -0.61118  -0.57722  -0.53163  -0.49929  -0.48029
 Alpha  occ. eigenvalues --   -0.45706  -0.44380  -0.43239  -0.41851  -0.40402
 Alpha  occ. eigenvalues --   -0.39899  -0.38459  -0.37813  -0.35503  -0.34840
 Alpha  occ. eigenvalues --   -0.32635  -0.28698  -0.27224  -0.22410
 Alpha virt. eigenvalues --   -0.02054   0.02042   0.08836   0.11090   0.12865
 Alpha virt. eigenvalues --    0.13480   0.14727   0.15491   0.16393   0.17123
 Alpha virt. eigenvalues --    0.17454   0.17975   0.18158   0.19638   0.22032

 Mulliken charges:
               1
     1  C   -0.477160
     2  C    0.355590
     3  O   -0.316905
     4  C    0.233523
     5  C   -0.413342
     6  O   -0.302357
     7  C   -0.135699
     8  C   -0.100988
     9  C   -0.106263
    10  H    0.133940
    11  H    0.140350
    12  H    0.153122
    13  H    0.125017
    14  H    0.115675
    15  H    0.140861
    16  H    0.111584
    17  H    0.107503
    18  H    0.112981
    19  H    0.122567
 Sum of Mulliken charges =   0.00000

 Dipole moment (field-independent basis, Debye):
    X=             -2.4874    Y=             -0.8745    Z=              0.2230  Tot=              2.6460
 Quadrupole moment (field-independent basis, Debye-Ang):
   XX=            -55.2067   YY=            -51.0713   ZZ=            -53.5556
   XY=             -1.3494   XZ=             -4.3009   YZ=             -0.4792

  Exact polarizability:  90.735   8.163  75.082   0.195   2.770  65.475
 Approx polarizability: 135.225  21.813 108.273   5.361   8.373  99.769

                      1                      2                      3
                      A                      A                      A
 Frequencies --     46.0964                89.5474               170.5490
 Red. masses --      4.0282                 3.1166                 1.0287
 Frc consts  --      0.0050                 0.0147                 0.0176
 IR Inten    --      4.2759                 0.6812                 0.3227

                      4                      5                      6
                      A                      A                      A
 Frequencies --    184.5001               225.7809               249.3421
 Red. masses --      3.0065                 1.0447                 3.4650
 Frc consts  --      0.0603                 0.0314                 0.1269
 IR Inten    --      0.9188                 0.1756                10.9417

                      7                      8                      9
                      A                      A                      A
 Frequencies --    278.5289               346.8179               401.5311
 Red. masses --      2.6481                 3.4552                 2.7992
 Frc consts  --      0.1210                 0.2449                 0.2659
 IR Inten    --      2.4737                 1.0664                 5.3870

                     10                     11                     12
                      A                      A                      A
 Frequencies --    458.0434               520.5368               591.4319
 Red. masses --      5.7505                 2.9205                 2.3893
 Frc consts  --      0.7108                 0.4662                 0.4924
 IR Inten    --      0.5569                 4.7137                 3.4112

                     13                     14                     15
                      A                      A                      A
 Frequencies --    630.5095               740.2368               774.9650
 Red. masses --      3.3755                 1.3576                 5.6469
 Frc consts  --      0.7906                 0.4383                 1.9981
 IR Inten    --      7.6940                31.5353                 8.5437

                     16                     17                     18
                      A                      A                      A
 Frequencies --    822.5101               864.6186               905.9534
 Red. masses --      4.5796                 2.3866                 2.0187
 Frc consts  --      1.8254                 1.0512                 0.9762
 IR Inten    --      7.3052                 4.0243                 6.1688

                     19                     20                     21
                      A                      A                      A
 Frequencies --    953.8828               963.3244               975.9104
 Red. masses --      2.2496                 1.2940                 1.8110
 Frc consts  --      1.2060                 0.7075                 1.0162
 IR Inten    --      7.7472                 0.8330                 7.0955

                     22                     23                     24
                      A                      A                      A
 Frequencies --   1019.2622              1046.1140              1047.9947
 Red. masses --      1.9209                 1.6849                 1.9415
 Frc consts  --      1.1758                 1.0864                 1.2563
 IR Inten    --      0.3266                14.4822                28.0289

                     25                     26                     27
                      A                      A                      A
 Frequencies --   1112.0388              1119.8154              1171.5961
 Red. masses --      2.1463                 2.2249                 2.3142
 Frc consts  --      1.5638                 1.6438                 1.8716
 IR Inten    --     79.7075                31.7043                40.1996

                     28                     29                     30
                      A                      A                      A
 Frequencies --   1187.7074              1202.9617              1245.2404
 Red. masses --      1.9102                 1.4164                 3.3003
 Frc consts  --      1.5876                 1.2076                 3.0152
 IR Inten    --     11.1421                 4.7587                28.2405

                     31                     32                     33
                      A                      A                      A
 Frequencies --   1339.0952              1376.6899              1380.1760
 Red. masses --      1.6327                 1.3538                 1.4447
 Frc consts  --      1.7249                 1.5117                 1.6215
 IR Inten    --      0.9227                30.4719                 3.0871

                     34                     35                     36
                      A                      A                      A
 Frequencies --   1391.9625              1454.9448              1466.8689
 Red. masses --      1.2667                 1.0531                 1.0515
 Frc consts  --      1.4460                 1.3134                 1.3330
 IR Inten    --      7.4715                13.3048                10.2171

                     37                     38                     39
                      A                      A                      A
 Frequencies --   1485.5778              1490.2859              1521.9917
 Red. masses --      1.0548                 1.0513                 1.0856
 Frc consts  --      1.3716                 1.3757                 1.4816
 IR Inten    --      5.4468                 2.3125                 0.5976

                     40                     41                     42
                      A                      A                      A
 Frequencies --   1686.3428              1805.4861              2978.5257
 Red. masses --      6.6353                11.2510                 1.0562
 Frc consts  --     11.1174                21.6088                 5.5206
 IR Inten    --      0.6833               150.5021                81.3411

                     43                     44                     45
                      A                      A                      A
 Frequencies --   2996.0208              3047.0971              3047.9970
 Red. masses --      1.1057                 1.0356                 1.0345
 Frc consts  --      5.8473                 5.6655                 5.6625
 IR Inten    --     41.8527                 4.5676                12.9489

                     46                     47                     48
                      A                      A                      A
 Frequencies --   3112.1043              3121.6359              3144.6760
 Red. masses --      1.0961                 1.1024                 1.1018
 Frc consts  --      6.2549                 6.3291                 6.4197
 IR Inten    --      4.8446                17.5582                 6.9554

                     49                     50                     51
                      A                      A                      A
 Frequencies --   3156.1817              3212.3956              3240.5400
 Red. masses --      1.1047                 1.0869                 1.1053
 Frc consts  --      6.4835                 6.6086                 6.8388
 IR Inten    --     12.3904                 2.1755                 4.2663

 - Thermochemistry -
 -------------------
 Temperature   298.150 Kelvin.  Pressure   1.00000 Atm.
 Atom     1 has atomic number  6 and mass  12.00000

 Molecular mass:   126.06808 amu.
 Principal axes and moments of inertia in atomic units:
                           1         2         3
     Eigenvalues --   715.496581240.557871414.83029
           X            0.99964  -0.01617  -0.02129
           Y            0.01540   0.99924  -0.03574
           Z            0.02185   0.03540   0.99913
 This molecule is an asymmetric top.
 Rotational symmetry number  1.
 Warning -- assumption of classical behavior for rotation
           may cause significant error
 Rotational temperatures (Kelvin)      0.12105     0.06982     0.06122
 Rotational constants (GHZ):           2.52236     1.45478     1.27559
 Zero-point vibrational energy     411539.0 (Joules/Mol)
                                   98.36017 (Kcal/Mol)
 Warning -- explicit consideration of  12 degrees of freedom as
           vibrations may cause significant error
 Vibrational temperatures:     66.32   128.84   245.38   265.45   324.85
          (Kelvin)            358.75   400.74   498.99   577.71   659.02
                              748.94   850.94   907.16  1065.03  1115.00
                             1183.41  1243.99  1303.46  1372.42  1386.01
                             1404.12  1466.49  1505.12  1507.83  1599.97
                             1611.16  1685.66  1708.84  1730.79  1791.62
                             1926.66  1980.75  1985.76  2002.72  2093.34
                             2110.49  2137.41  2144.19  2189.80  2426.27
                             2597.69  4285.43  4310.60  4384.09  4385.38
                             4477.62  4491.33  4524.48  4541.04  4621.91
                             4662.41

 Zero-point correction=                           0.156747 (Hartree/Particle)
 Thermal correction to Energy=                    0.166045
 Thermal correction to Enthalpy=                  0.166989
 Thermal correction to Gibbs Free Energy=         0.122356
 Sum of electronic and zero-point Energies=           -423.054559
 Sum of electronic and thermal Energies=              -423.045260
 Sum of electronic and thermal Enthalpies=            -423.044316
 Sum of electronic and thermal Free Energies=         -423.088950

                     E (Thermal)             CV                S
                      KCal/Mol        Cal/Mol-Kelvin    Cal/Mol-Kelvin
 Total                  104.195             34.180             93.939
 Electronic               0.000              0.000              0.000
 Translational            0.889              2.981             40.409
 Rotational               0.889              2.981             28.620
 Vibrational            102.417             28.218             24.911
 Vibration     1          0.595              1.979              4.978
 Vibration     2          0.602              1.957              3.670
 Vibration     3          0.626              1.879              2.429
 Vibration     4          0.631              1.861              2.282
 Vibration     5          0.650              1.802              1.912
 Vibration     6          0.662              1.764              1.735
 Vibration     7          0.679              1.713              1.543
 Vibration     8          0.725              1.582              1.181
 Vibration     9          0.767              1.467              0.957
 Vibration    10          0.816              1.343              0.772
 Vibration    11          0.876              1.205              0.609
 Vibration    12          0.949              1.050              0.465

 Optimization completed.
    -- Stationary point found.
 Normal termination of Gaussian 09 at Mon Jan 27 14:51:26 2020.
