 Gaussian 09, Revision D.01,
 Gaussian 09:  ES64L-G09RevD.01 24-Apr-2013

 -----------------------------
 # b3lyp 6-31G(2df,p) opt Freq
 -----------------------------

 -----
 titel
 -----
 Symbolic Z-matrix:
 Charge =  0 Multiplicity = 1

 SCF Done:  E(RB3LYP) =  -423.169524586     A.U. after   14 cycles
 Optimization completed.
    -- Stationary point found.
 Normal termination of Gaussian 09 at Tue Jan 28 11:46:55 2020.

 ----------------------------------------------------------------------
 #N Geom=AllCheck Guess=TCheck SCRF=Check GenChk RB3LYP/6-31G(2df,p) Fr
 eq
 ----------------------------------------------------------------------

 Structure from the checkpoint file:  "/scratch/puck/g09_583b168b-a471-4ad4-b3fe-e1cc28ac9d9b/Gau-89578.chk"
 -----
 titel
 -----
 Charge =  0 Multiplicity = 1

                         Standard orientation:
 ---------------------------------------------------------------------
 Center     Atomic      Atomic             Coordinates (Angstroms)
 Number     Number       Type             X           Y           Z
 ---------------------------------------------------------------------
      1          8           0        2.805509   -0.374162    0.085363
      2          6           0        1.503090   -0.760787   -0.333618
      3          6           0        0.505734    0.073885    0.460191
      4          6           0        0.623403    1.600690    0.187963
      5          6           0       -0.781072    2.026761   -0.159463
      6          6           0       -1.637270    1.006199   -0.192276
      7          6           0       -0.956603   -0.274232    0.121723
      8          6           0       -1.641484   -1.477569    0.611047
      9          8           0       -1.217608   -1.399455   -0.750758
     10          1           0        3.445173   -0.862337   -0.440822
     11          1           0        1.356007   -0.583215   -1.409861
     12          1           0        1.323950   -1.830540   -0.155136
     13          1           0        0.687140   -0.118323    1.522905
     14          1           0        1.010500    2.139827    1.059583
     15          1           0        1.324271    1.815017   -0.628710
     16          1           0       -1.038607    3.060336   -0.364250
     17          1           0       -2.692090    1.052772   -0.435121
     18          1           0       -1.094103   -2.186314    1.233752
     19          1           0       -2.720234   -1.467975    0.767423
 ---------------------------------------------------------------------

 SCF Done:  E(RB3LYP) =  -423.169524586     A.U. after    1 cycles

 The electronic state is 1-A.
 Alpha  occ. eigenvalues --  -19.14564 -19.13261 -10.23921 -10.22878 -10.22283
 Alpha  occ. eigenvalues --  -10.18745 -10.18721 -10.18281 -10.18043  -1.06295
 Alpha  occ. eigenvalues --   -1.01303  -0.83974  -0.74301  -0.69127  -0.66049
 Alpha  occ. eigenvalues --   -0.63107  -0.56009  -0.54164  -0.51390  -0.49088
 Alpha  occ. eigenvalues --   -0.46574  -0.45950  -0.43626  -0.41801  -0.38627
 Alpha  occ. eigenvalues --   -0.37058  -0.36527  -0.35052  -0.34371  -0.32442
 Alpha  occ. eigenvalues --   -0.31095  -0.26715  -0.26211  -0.24072
 Alpha virt. eigenvalues --    0.01114   0.07886   0.09196   0.10741   0.12265
 Alpha virt. eigenvalues --    0.12713   0.14072   0.15483   0.16076   0.17394
 Alpha virt. eigenvalues --    0.18207   0.19098   0.19850   0.21232   0.21948

 Mulliken charges:
               1
     1  O   -0.426210
     2  C   -0.083674
     3  C   -0.096442
     4  C   -0.276065
     5  C   -0.081094
     6  C   -0.136490
     7  C    0.406881
     8  C   -0.246107
     9  O   -0.279087
    10  H    0.286698
    11  H    0.096459
    12  H    0.095294
    13  H    0.088904
    14  H    0.113888
    15  H    0.117290
    16  H    0.099378
    17  H    0.101393
    18  H    0.109132
    19  H    0.109850
 Sum of Mulliken charges =   0.00000

 Dipole moment (field-independent basis, Debye):
    X=              0.1271    Y=              0.1728    Z=              0.4819  Tot=              0.5275
 Quadrupole moment (field-independent basis, Debye-Ang):
   XX=            -49.6223   YY=            -50.8283   ZZ=            -54.0878
   XY=             -3.6074   XZ=             -5.2407   YZ=             -2.2678

  Exact polarizability:  86.478   6.623  87.986  -0.461  -3.803  57.066
 Approx polarizability: 118.080  17.286 130.423   0.816  -1.482  93.409

                      1                      2                      3
                      A                      A                      A
 Frequencies --     33.8482               112.7460               177.1528
 Red. masses --      2.7833                 3.2300                 4.2640
 Frc consts  --      0.0019                 0.0242                 0.0788
 IR Inten    --      1.0512                 2.2005                 6.2418

                      4                      5                      6
                      A                      A                      A
 Frequencies --    247.2437               277.0923               293.1641
 Red. masses --      2.5309                 1.2558                 2.9403
 Frc consts  --      0.0912                 0.0568                 0.1489
 IR Inten    --     10.1569                84.5354                 9.3835

                      7                      8                      9
                      A                      A                      A
 Frequencies --    307.6505               441.0568               475.8034
 Red. masses --      2.9929                 2.2505                 3.7361
 Frc consts  --      0.1669                 0.2579                 0.4983
 IR Inten    --      1.9104                 1.1714                 8.7728

                     10                     11                     12
                      A                      A                      A
 Frequencies --    505.5152               556.5949               720.4521
 Red. masses --      4.2292                 2.9384                 3.6019
 Frc consts  --      0.6368                 0.5363                 1.1015
 IR Inten    --      5.9544                 8.7785                15.3306

                     13                     14                     15
                      A                      A                      A
 Frequencies --    766.5413               793.8303               849.3958
 Red. masses --      1.6309                 3.9258                 2.8142
 Frc consts  --      0.5646                 1.4576                 1.1963
 IR Inten    --     12.9290                16.9698                 7.3199

                     16                     17                     18
                      A                      A                      A
 Frequencies --    886.7106               926.7992               948.6169
 Red. masses --      2.5072                 1.4216                 1.8861
 Frc consts  --      1.1614                 0.7195                 1.0000
 IR Inten    --     10.4836                 0.0963                 3.9756

                     19                     20                     21
                      A                      A                      A
 Frequencies --    955.2009               977.0964               994.7757
 Red. masses --      2.2804                 1.3642                 3.3157
 Frc consts  --      1.2259                 0.7674                 1.9332
 IR Inten    --     24.7474                 3.0927                17.5568

                     22                     23                     24
                      A                      A                      A
 Frequencies --   1071.6667              1077.3869              1097.9112
 Red. masses --      3.4493                 2.2395                 2.0322
 Frc consts  --      2.3340                 1.5316                 1.4433
 IR Inten    --     61.8849                 2.2159                32.1066

                     25                     26                     27
                      A                      A                      A
 Frequencies --   1123.8847              1128.3382              1165.4822
 Red. masses --      1.1999                 1.2653                 1.3353
 Frc consts  --      0.8929                 0.9491                 1.0686
 IR Inten    --      4.8035                 2.5080                 0.5119

                     28                     29                     30
                      A                      A                      A
 Frequencies --   1185.5033              1237.1836              1240.8276
 Red. masses --      1.2274                 1.2055                 2.1023
 Frc consts  --      1.0164                 1.0872                 1.9071
 IR Inten    --      5.4620                20.8735                 3.8997

                     31                     32                     33
                      A                      A                      A
 Frequencies --   1261.9298              1284.6431              1326.8896
 Red. masses --      1.2429                 1.3117                 1.5639
 Frc consts  --      1.1662                 1.2754                 1.6223
 IR Inten    --      8.6011                21.5948                 1.8798

                     34                     35                     36
                      A                      A                      A
 Frequencies --   1339.6606              1359.6743              1426.6536
 Red. masses --      1.9480                 1.5869                 2.4318
 Frc consts  --      2.0599                 1.7285                 2.9162
 IR Inten    --      0.4693                 8.6935                15.4255

                     37                     38                     39
                      A                      A                      A
 Frequencies --   1456.8792              1485.9931              1516.6600
 Red. masses --      1.4610                 1.0892                 1.1013
 Frc consts  --      1.8270                 1.4171                 1.4926
 IR Inten    --      8.0625                 2.8405                 2.4317

                     40                     41                     42
                      A                      A                      A
 Frequencies --   1526.6674              1681.8682              2985.0843
 Red. masses --      1.3188                 6.4055                 1.0569
 Frc consts  --      1.8110                10.6754                 5.5489
 IR Inten    --      2.8482                 3.5309                37.8299

                     43                     44                     45
                      A                      A                      A
 Frequencies --   3018.0731              3032.7548              3048.1361
 Red. masses --      1.1018                 1.0632                 1.0904
 Frc consts  --      5.9132                 5.7613                 5.9688
 IR Inten    --     31.4090                29.7418                12.5044

                     46                     47                     48
                      A                      A                      A
 Frequencies --   3066.8142              3067.3949              3151.6305
 Red. masses --      1.0627                 1.0826                 1.1189
 Frc consts  --      5.8890                 6.0013                 6.5483
 IR Inten    --     18.3961                51.3814                24.4189

                     49                     50                     51
                      A                      A                      A
 Frequencies --   3186.6127              3214.7547              3832.4126
 Red. masses --      1.0860                 1.1035                 1.0664
 Frc consts  --      6.4974                 6.7193                 9.2280
 IR Inten    --      6.7695                15.6162                22.9631

 - Thermochemistry -
 -------------------
 Temperature   298.150 Kelvin.  Pressure   1.00000 Atm.
 Atom     1 has atomic number  8 and mass  15.99491

 Molecular mass:   126.06808 amu.
 Principal axes and moments of inertia in atomic units:
                           1         2         3
     Eigenvalues --   775.328201180.167901760.82384
           X            0.99981  -0.01214  -0.01508
           Y            0.01187   0.99977  -0.01788
           Z            0.01530   0.01770   0.99973
 This molecule is an asymmetric top.
 Rotational symmetry number  1.
 Warning -- assumption of classical behavior for rotation
           may cause significant error
 Rotational temperatures (Kelvin)      0.11171     0.07339     0.04919
 Rotational constants (GHZ):           2.32771     1.52922     1.02494
 Zero-point vibrational energy     417775.8 (Joules/Mol)
                                   99.85081 (Kcal/Mol)
 Warning -- explicit consideration of  11 degrees of freedom as
           vibrations may cause significant error
 Vibrational temperatures:     48.70   162.22   254.88   355.73   398.67
          (Kelvin)            421.80   442.64   634.58   684.57   727.32
                              800.81  1036.57  1102.88  1142.14  1222.09
                             1275.78  1333.46  1364.85  1374.32  1405.82
                             1431.26  1541.89  1550.12  1579.65  1617.02
                             1623.43  1676.87  1705.67  1780.03  1785.27
                             1815.63  1848.31  1909.10  1927.47  1956.27
                             2052.63  2096.12  2138.01  2182.13  2196.53
                             2419.83  4294.87  4342.33  4363.45  4385.58
                             4412.46  4413.29  4534.49  4584.82  4625.31
                             5513.98

 Zero-point correction=                           0.159122 (Hartree/Particle)
 Thermal correction to Energy=                    0.167715
 Thermal correction to Enthalpy=                  0.168659
 Thermal correction to Gibbs Free Energy=         0.125150
 Sum of electronic and zero-point Energies=           -423.010402
 Sum of electronic and thermal Energies=              -423.001809
 Sum of electronic and thermal Enthalpies=            -423.000865
 Sum of electronic and thermal Free Energies=         -423.044374

                     E (Thermal)             CV                S
                      KCal/Mol        Cal/Mol-Kelvin    Cal/Mol-Kelvin
 Total                  105.243             32.356             91.572
 Electronic               0.000              0.000              0.000
 Translational            0.889              2.981             40.409
 Rotational               0.889              2.981             28.868
 Vibrational            103.465             26.395             22.296
 Vibration     1          0.594              1.983              5.590
 Vibration     2          0.607              1.939              3.221
 Vibration     3          0.628              1.870              2.358
 Vibration     4          0.661              1.767              1.750
 Vibration     5          0.678              1.716              1.552
 Vibration     6          0.688              1.686              1.456
 Vibration     7          0.698              1.659              1.375
 Vibration     8          0.801              1.381              0.823
 Vibration     9          0.832              1.304              0.721
 Vibration    10          0.861              1.238              0.644
 Vibration    11          0.912              1.125              0.531

 Optimization completed.
    -- Stationary point found.
 Normal termination of Gaussian 09 at Tue Jan 28 13:22:30 2020.
