 Gaussian 09, Revision D.01,
 Gaussian 09:  ES64L-G09RevD.01 24-Apr-2013

 -----------------------------
 # b3lyp 6-31G(2df,p) opt Freq
 -----------------------------

 -----
 titel
 -----
 Symbolic Z-matrix:
 Charge =  0 Multiplicity = 1

 SCF Done:  E(RB3LYP) =  -423.165716852     A.U. after   14 cycles
 Optimization completed.
    -- Stationary point found.
 Normal termination of Gaussian 09 at Mon Jan 27 14:12:28 2020.

 ----------------------------------------------------------------------
 #N Geom=AllCheck Guess=TCheck SCRF=Check GenChk RB3LYP/6-31G(2df,p) Fr
 eq
 ----------------------------------------------------------------------

 Structure from the checkpoint file:  "/scratch/puck/g09_c456f819-f3dd-4305-bda9-355e7c7100ad/Gau-31358.chk"
 -----
 titel
 -----
 Charge =  0 Multiplicity = 1

                         Standard orientation:
 ---------------------------------------------------------------------
 Center     Atomic      Atomic             Coordinates (Angstroms)
 Number     Number       Type             X           Y           Z
 ---------------------------------------------------------------------
      1          6           0       -1.679353    1.223938    0.774936
      2          6           0       -1.689446   -0.057193   -0.033000
      3          8           0       -2.670045   -0.420283   -0.645034
      4          6           0       -0.409298   -0.879094   -0.098255
      5          6           0        0.578170   -1.028578    1.107082
      6          6           0        1.781693   -0.696730    0.177858
      7          6           0        2.140624    0.793329    0.140635
      8          8           0        1.057652    1.068653   -0.785448
      9          6           0        0.777690   -0.338108   -0.952597
     10          1           0       -0.855071    1.858708    0.434597
     11          1           0       -2.635553    1.734869    0.656343
     12          1           0       -1.511949    1.011710    1.837028
     13          1           0       -0.690406   -1.859509   -0.491772
     14          1           0        0.441846   -0.307629    1.917086
     15          1           0        0.587638   -2.030271    1.540063
     16          1           0        2.578302   -1.432901    0.088973
     17          1           0        2.041163    1.354206    1.077928
     18          1           0        3.111903    1.022073   -0.315967
     19          1           0        0.830804   -0.643606   -2.000369
 ---------------------------------------------------------------------

 SCF Done:  E(RB3LYP) =  -423.165716852     A.U. after    1 cycles

 The electronic state is 1-A.
 Alpha  occ. eigenvalues --  -19.14706 -19.12022 -10.26364 -10.24729 -10.24140
 Alpha  occ. eigenvalues --  -10.20448 -10.20012 -10.19639 -10.17771  -1.05211
 Alpha  occ. eigenvalues --   -1.03048  -0.83881  -0.74765  -0.72058  -0.66320
 Alpha  occ. eigenvalues --   -0.64609  -0.54929  -0.52970  -0.52039  -0.48147
 Alpha  occ. eigenvalues --   -0.47397  -0.44174  -0.43191  -0.42725  -0.40850
 Alpha  occ. eigenvalues --   -0.39769  -0.37416  -0.36417  -0.35515  -0.33661
 Alpha  occ. eigenvalues --   -0.31634  -0.30127  -0.25840  -0.23339
 Alpha virt. eigenvalues --   -0.01139   0.06411   0.08187   0.09011   0.10667
 Alpha virt. eigenvalues --    0.11574   0.13657   0.15395   0.16037   0.16522
 Alpha virt. eigenvalues --    0.17525   0.19021   0.19290   0.20554   0.21779

 Mulliken charges:
               1
     1  C   -0.498557
     2  C    0.381946
     3  O   -0.309405
     4  C   -0.089846
     5  C   -0.279948
     6  C   -0.075748
     7  C   -0.079278
     8  O   -0.287375
     9  C    0.099760
    10  H    0.163418
    11  H    0.135807
    12  H    0.131349
    13  H    0.098513
    14  H    0.107560
    15  H    0.114626
    16  H    0.084485
    17  H    0.104875
    18  H    0.107483
    19  H    0.090336
 Sum of Mulliken charges =   0.00000

 Dipole moment (field-independent basis, Debye):
    X=              3.2563    Y=             -0.6476    Z=              1.9127  Tot=              3.8316
 Quadrupole moment (field-independent basis, Debye-Ang):
   XX=            -58.6014   YY=            -52.7532   ZZ=            -52.7085
   XY=             -3.2265   XZ=             -2.8984   YZ=              1.5434

  Exact polarizability:  87.280   1.176  70.751   2.620   3.914  67.606
 Approx polarizability: 120.385   5.553 104.469   9.223   5.641 104.456

                      1                      2                      3
                      A                      A                      A
 Frequencies --     48.3836                91.3897               166.9517
 Red. masses --      5.0474                 2.8979                 2.1784
 Frc consts  --      0.0070                 0.0143                 0.0358
 IR Inten    --      4.5107                 0.2046                 1.3112

                      4                      5                      6
                      A                      A                      A
 Frequencies --    204.3926               259.7706               342.1667
 Red. masses --      1.5189                 2.5175                 3.3770
 Frc consts  --      0.0374                 0.1001                 0.2330
 IR Inten    --      2.1989                 5.8954                 2.0690

                      7                      8                      9
                      A                      A                      A
 Frequencies --    374.6436               429.4087               508.9548
 Red. masses --      2.1869                 5.7744                 2.6433
 Frc consts  --      0.1808                 0.6273                 0.4034
 IR Inten    --      0.5598                 4.2843                 4.2501

                     10                     11                     12
                      A                      A                      A
 Frequencies --    605.0081               683.9510               740.2724
 Red. masses --      2.9382                 3.0086                 2.5431
 Frc consts  --      0.6337                 0.8292                 0.8211
 IR Inten    --      5.8942                 6.4401                 1.0506

                     13                     14                     15
                      A                      A                      A
 Frequencies --    782.4997               832.9956               873.6290
 Red. masses --      2.3613                 1.6622                 2.1934
 Frc consts  --      0.8519                 0.6795                 0.9863
 IR Inten    --      4.8771                 6.9471                 3.1817

                     16                     17                     18
                      A                      A                      A
 Frequencies --    905.7761               929.8870               965.6147
 Red. masses --      2.9313                 2.9034                 2.0502
 Frc consts  --      1.4169                 1.4792                 1.1263
 IR Inten    --      2.9191                16.3496                 7.1285

                     19                     20                     21
                      A                      A                      A
 Frequencies --    992.7650               996.9195              1021.6044
 Red. masses --      2.4623                 2.1829                 2.6932
 Frc consts  --      1.4298                 1.2782                 1.6561
 IR Inten    --     15.1011                41.9142                42.3772

                     22                     23                     24
                      A                      A                      A
 Frequencies --   1049.4938              1075.0895              1091.6565
 Red. masses --      2.2127                 2.3290                 2.2573
 Frc consts  --      1.4360                 1.5860                 1.5849
 IR Inten    --      9.6299                23.3647                 3.8727

                     25                     26                     27
                      A                      A                      A
 Frequencies --   1148.5202              1161.8487              1186.5334
 Red. masses --      1.4458                 1.2779                 1.4661
 Frc consts  --      1.1236                 1.0163                 1.2161
 IR Inten    --      1.0520                 4.9723                 7.2086

                     28                     29                     30
                      A                      A                      A
 Frequencies --   1220.7012              1239.2268              1257.2753
 Red. masses --      1.5507                 2.0867                 1.5706
 Frc consts  --      1.3614                 1.8880                 1.4628
 IR Inten    --     10.3408                69.3931                13.5273

                     31                     32                     33
                      A                      A                      A
 Frequencies --   1269.6031              1299.8428              1317.9046
 Red. masses --      1.4256                 1.4761                 1.4399
 Frc consts  --      1.3539                 1.4694                 1.4735
 IR Inten    --      3.1206                 1.2982                 7.1438

                     34                     35                     36
                      A                      A                      A
 Frequencies --   1327.8819              1362.7930              1380.0733
 Red. masses --      1.5066                 1.4509                 1.3460
 Frc consts  --      1.5652                 1.5876                 1.5104
 IR Inten    --      1.9400                 7.0761                42.6153

                     37                     38                     39
                      A                      A                      A
 Frequencies --   1470.3150              1478.9251              1487.7190
 Red. masses --      1.0580                 1.0520                 1.0908
 Frc consts  --      1.3475                 1.3557                 1.4225
 IR Inten    --      7.4919                 9.9598                 2.5289

                     40                     41                     42
                      A                      A                      A
 Frequencies --   1525.3761              1796.5989              3012.7649
 Red. masses --      1.1008                10.4937                 1.0554
 Frc consts  --      1.5091                19.9563                 5.6444
 IR Inten    --      1.0135               181.3545                79.7439

                     43                     44                     45
                      A                      A                      A
 Frequencies --   3039.6689              3059.8906              3069.7458
 Red. masses --      1.0365                 1.1102                 1.0603
 Frc consts  --      5.6428                 6.1244                 5.8867
 IR Inten    --      3.6711                30.9299                41.0389

                     46                     47                     48
                      A                      A                      A
 Frequencies --   3073.8099              3084.9847              3106.7252
 Red. masses --      1.0854                 1.0884                 1.0965
 Frc consts  --      6.0423                 6.1032                 6.2355
 IR Inten    --      5.4442                35.1691                 7.3978

                     49                     50                     51
                      A                      A                      A
 Frequencies --   3120.2527              3133.2917              3154.0795
 Red. masses --      1.1021                 1.0948                 1.1033
 Frc consts  --      6.3221                 6.3329                 6.4666
 IR Inten    --      8.9640                43.5647                 7.2771

 - Thermochemistry -
 -------------------
 Temperature   298.150 Kelvin.  Pressure   1.00000 Atm.
 Atom     1 has atomic number  6 and mass  12.00000

 Molecular mass:   126.06808 amu.
 Principal axes and moments of inertia in atomic units:
                           1         2         3
     Eigenvalues --   578.121251442.826261555.41292
           X            0.99965  -0.02315  -0.01262
           Y            0.02437   0.99395   0.10709
           Z            0.01006  -0.10736   0.99417
 This molecule is an asymmetric top.
 Rotational symmetry number  1.
 Warning -- assumption of classical behavior for rotation
           may cause significant error
 Rotational temperatures (Kelvin)      0.14982     0.06003     0.05569
 Rotational constants (GHZ):           3.12173     1.25084     1.16030
 Zero-point vibrational energy     417254.9 (Joules/Mol)
                                   99.72632 (Kcal/Mol)
 Warning -- explicit consideration of  10 degrees of freedom as
           vibrations may cause significant error
 Vibrational temperatures:     69.61   131.49   240.21   294.08   373.75
          (Kelvin)            492.30   539.03   617.82   732.27   870.47
                              984.05  1065.09  1125.84  1198.49  1256.96
                             1303.21  1337.90  1389.30  1428.37  1434.34
                             1469.86  1509.99  1546.81  1570.65  1652.46
                             1671.64  1707.15  1756.31  1782.97  1808.94
                             1826.67  1870.18  1896.17  1910.52  1960.75
                             1985.62  2115.45  2127.84  2140.49  2194.67
                             2584.90  4334.69  4373.40  4402.49  4416.67
                             4422.52  4438.60  4469.88  4489.34  4508.10
                             4538.01

 Zero-point correction=                           0.158924 (Hartree/Particle)
 Thermal correction to Energy=                    0.167298
 Thermal correction to Enthalpy=                  0.168242
 Thermal correction to Gibbs Free Energy=         0.125266
 Sum of electronic and zero-point Energies=           -423.006793
 Sum of electronic and thermal Energies=              -422.998419
 Sum of electronic and thermal Enthalpies=            -422.997475
 Sum of electronic and thermal Free Energies=         -423.040451

                     E (Thermal)             CV                S
                      KCal/Mol        Cal/Mol-Kelvin    Cal/Mol-Kelvin
 Total                  104.981             31.350             90.451
 Electronic               0.000              0.000              0.000
 Translational            0.889              2.981             40.409
 Rotational               0.889              2.981             28.652
 Vibrational            103.203             25.389             21.390
 Vibration     1          0.595              1.978              4.882
 Vibration     2          0.602              1.955              3.630
 Vibration     3          0.624              1.883              2.470
 Vibration     4          0.640              1.834              2.093
 Vibration     5          0.668              1.746              1.663
 Vibration     6          0.721              1.591              1.202
 Vibration     7          0.746              1.524              1.061
 Vibration     8          0.791              1.406              0.861
 Vibration     9          0.864              1.230              0.636
 Vibration    10          0.964              1.021              0.441

 Normal termination of Gaussian 09 at Mon Jan 27 14:58:27 2020.
