 Gaussian 09, Revision D.01,
 Gaussian 09:  ES64L-G09RevD.01 24-Apr-2013

 -----------------------------
 # b3lyp 6-31G(2df,p) opt Freq
 -----------------------------

 -----
 titel
 -----
 Symbolic Z-matrix:
 Charge =  0 Multiplicity = 1

 SCF Done:  E(RB3LYP) =  -423.177614393     A.U. after   14 cycles
 Optimization completed.
    -- Stationary point found.
 Normal termination of Gaussian 09 at Mon Jan 27 23:03:22 2020.

 ----------------------------------------------------------------------
 #N Geom=AllCheck Guess=TCheck SCRF=Check GenChk RB3LYP/6-31G(2df,p) Fr
 eq
 ----------------------------------------------------------------------

 Structure from the checkpoint file:  "/scratch/puck/g09_eea28865-4f3b-4a23-8323-85439e510d02/Gau-128736.chk"
 -----
 titel
 -----
 Charge =  0 Multiplicity = 1

                         Standard orientation:
 ---------------------------------------------------------------------
 Center     Atomic      Atomic             Coordinates (Angstroms)
 Number     Number       Type             X           Y           Z
 ---------------------------------------------------------------------
      1          6           0       -0.718312    2.125674    0.126939
      2          6           0       -0.483782    0.848432   -0.656969
      3          6           0       -1.447564   -0.367130   -0.657526
      4          6           0       -1.640766   -0.722416    0.831073
      5          6           0       -0.138455   -0.662987    1.251291
      6          6           0        0.435769   -0.312229   -0.139470
      7          8           0       -0.305120   -1.209300   -1.019336
      8          6           0        1.912725   -0.267884   -0.366173
      9          8           0        2.690014    0.222646    0.414950
     10          1           0        0.198611    2.722677    0.167704
     11          1           0       -1.487961    2.735009   -0.358972
     12          1           0       -1.039532    1.940156    1.154688
     13          1           0       -0.203149    1.062486   -1.691715
     14          1           0       -2.294452   -0.452301   -1.338768
     15          1           0       -2.277854   -0.013193    1.365601
     16          1           0       -2.066551   -1.721397    0.940622
     17          1           0        0.091214    0.091036    2.005743
     18          1           0        0.243898   -1.625351    1.595444
     19          1           0        2.238940   -0.694645   -1.340258
 ---------------------------------------------------------------------

 SCF Done:  E(RB3LYP) =  -423.177614393     A.U. after    1 cycles

 The electronic state is 1-A.
 Alpha  occ. eigenvalues --  -19.14520 -19.14264 -10.27346 -10.24794 -10.24503
 Alpha  occ. eigenvalues --  -10.20790 -10.19174 -10.19110 -10.18808  -1.06203
 Alpha  occ. eigenvalues --   -1.04788  -0.81119  -0.75640  -0.73667  -0.67246
 Alpha  occ. eigenvalues --   -0.62947  -0.56870  -0.54337  -0.51496  -0.47877
 Alpha  occ. eigenvalues --   -0.46467  -0.45089  -0.43872  -0.40836  -0.40663
 Alpha  occ. eigenvalues --   -0.39244  -0.37490  -0.36464  -0.35634  -0.35020
 Alpha  occ. eigenvalues --   -0.32811  -0.31354  -0.25952  -0.25319
 Alpha virt. eigenvalues --   -0.03541   0.08383   0.09485   0.10856   0.12116
 Alpha virt. eigenvalues --    0.13329   0.13458   0.15210   0.15597   0.16766
 Alpha virt. eigenvalues --    0.17050   0.18013   0.18321   0.19835   0.22199

 Mulliken charges:
               1
     1  C   -0.438555
     2  C   -0.004962
     3  C    0.051999
     4  C   -0.226723
     5  C   -0.263522
     6  C    0.320354
     7  O   -0.335256
     8  C    0.048357
     9  O   -0.257335
    10  H    0.137217
    11  H    0.124506
    12  H    0.125158
    13  H    0.092794
    14  H    0.081620
    15  H    0.103468
    16  H    0.113500
    17  H    0.119701
    18  H    0.115396
    19  H    0.092284
 Sum of Mulliken charges =   0.00000

 Dipole moment (field-independent basis, Debye):
    X=             -2.5309    Y=              0.7934    Z=             -0.1984  Tot=              2.6598
 Quadrupole moment (field-independent basis, Debye-Ang):
   XX=            -57.6311   YY=            -53.3075   ZZ=            -53.2379
   XY=             -2.1697   XZ=             -2.7689   YZ=             -2.5488

  Exact polarizability:  83.576   0.422  71.194   0.820   0.344  70.434
 Approx polarizability: 120.028   2.003 104.007   7.012   6.233 109.747

                      1                      2                      3
                      A                      A                      A
 Frequencies --     49.4085               151.6609               168.5650
 Red. masses --      3.8302                 2.9431                 1.1799
 Frc consts  --      0.0055                 0.0399                 0.0198
 IR Inten    --      7.5789                 3.8491                 0.8269

                      4                      5                      6
                      A                      A                      A
 Frequencies --    215.0845               259.0919               277.9161
 Red. masses --      2.5184                 2.8149                 1.8357
 Frc consts  --      0.0686                 0.1113                 0.0835
 IR Inten    --      3.9671                 0.8271                 0.2591

                      7                      8                      9
                      A                      A                      A
 Frequencies --    370.6256               456.7183               507.6962
 Red. masses --      2.2941                 6.2363                 2.7872
 Frc consts  --      0.1857                 0.7664                 0.4233
 IR Inten    --      0.9989                 0.4943                 3.6208

                     10                     11                     12
                      A                      A                      A
 Frequencies --    572.1397               678.9030               734.1366
 Red. masses --      4.7087                 4.8398                 2.9942
 Frc consts  --      0.9081                 1.3143                 0.9508
 IR Inten    --     11.0362                13.2206                 2.7552

                     13                     14                     15
                      A                      A                      A
 Frequencies --    751.9964               820.7158               832.8490
 Red. masses --      3.1652                 3.9803                 1.3472
 Frc consts  --      1.0546                 1.5796                 0.5506
 IR Inten    --      9.7042                43.9592                 2.1498

                     16                     17                     18
                      A                      A                      A
 Frequencies --    868.4948               907.6067               944.4149
 Red. masses --      2.6490                 2.5031                 2.5189
 Frc consts  --      1.1772                 1.2148                 1.3237
 IR Inten    --     18.0128                 6.7248                 3.0527

                     19                     20                     21
                      A                      A                      A
 Frequencies --    964.6106               989.8268              1013.4012
 Red. masses --      2.9470                 1.9261                 1.7558
 Frc consts  --      1.6156                 1.1119                 1.0624
 IR Inten    --     19.6207                 2.6706                24.5849

                     22                     23                     24
                      A                      A                      A
 Frequencies --   1046.8500              1078.9909              1136.4786
 Red. masses --      1.5567                 1.5074                 2.4093
 Frc consts  --      1.0051                 1.0340                 1.8334
 IR Inten    --      8.4952                 0.3533                 4.5369

                     25                     26                     27
                      A                      A                      A
 Frequencies --   1142.9619              1160.6677              1177.6015
 Red. masses --      2.0896                 1.7768                 1.7741
 Frc consts  --      1.6084                 1.4103                 1.4496
 IR Inten    --      5.1333                 1.4980                11.8453

                     28                     29                     30
                      A                      A                      A
 Frequencies --   1229.2298              1237.8820              1273.9718
 Red. masses --      1.2114                 1.4508                 1.5321
 Frc consts  --      1.0785                 1.3098                 1.4650
 IR Inten    --      2.2708                 1.8709                 7.0327

                     31                     32                     33
                      A                      A                      A
 Frequencies --   1279.4301              1308.7811              1326.8095
 Red. masses --      2.0255                 1.5951                 1.7549
 Frc consts  --      1.9535                 1.6098                 1.8202
 IR Inten    --      3.6179                 1.2241                 1.1076

                     34                     35                     36
                      A                      A                      A
 Frequencies --   1385.1896              1406.9127              1414.9874
 Red. masses --      1.5038                 1.3329                 1.3254
 Frc consts  --      1.7001                 1.5545                 1.5636
 IR Inten    --      8.1225                 7.6783                13.2241

                     37                     38                     39
                      A                      A                      A
 Frequencies --   1475.0364              1491.6656              1501.1143
 Red. masses --      1.0744                 1.0736                 1.0555
 Frc consts  --      1.3773                 1.4074                 1.4013
 IR Inten    --      2.8649                 1.5060                 1.8598

                     40                     41                     42
                      A                      A                      A
 Frequencies --   1505.0896              1818.6973              2894.9409
 Red. masses --      1.0885                10.7266                 1.0838
 Frc consts  --      1.4528                20.9041                 5.3516
 IR Inten    --      8.8712               144.3840                93.2445

                     43                     44                     45
                      A                      A                      A
 Frequencies --   3039.6097              3070.5746              3078.0625
 Red. masses --      1.0372                 1.0598                 1.0848
 Frc consts  --      5.6461                 5.8871                 6.0557
 IR Inten    --     16.1456                22.4557                11.6004

                     46                     47                     48
                      A                      A                      A
 Frequencies --   3085.4124              3100.8324              3116.9865
 Red. masses --      1.0603                 1.1005                 1.1048
 Frc consts  --      5.9469                 6.2347                 6.3240
 IR Inten    --     15.9798                12.3219                 9.3753

                     49                     50                     51
                      A                      A                      A
 Frequencies --   3121.5496              3123.3467              3137.4882
 Red. masses --      1.0941                 1.0977                 1.1066
 Frc consts  --      6.2813                 6.3090                 6.4178
 IR Inten    --     36.6719                37.0873                24.3471

 - Thermochemistry -
 -------------------
 Temperature   298.150 Kelvin.  Pressure   1.00000 Atm.
 Atom     1 has atomic number  6 and mass  12.00000

 Molecular mass:   126.06808 amu.
 Principal axes and moments of inertia in atomic units:
                           1         2         3
     Eigenvalues --   729.833331175.926691363.24627
           X            0.99927  -0.02782  -0.02613
           Y            0.02661   0.99860  -0.04576
           Z            0.02737   0.04503   0.99861
 This molecule is an asymmetric top.
 Rotational symmetry number  1.
 Warning -- assumption of classical behavior for rotation
           may cause significant error
 Rotational temperatures (Kelvin)      0.11868     0.07366     0.06353
 Rotational constants (GHZ):           2.47281     1.53474     1.32386
 Zero-point vibrational energy     416916.6 (Joules/Mol)
                                   99.64546 (Kcal/Mol)
 Warning -- explicit consideration of  10 degrees of freedom as
           vibrations may cause significant error
 Vibrational temperatures:     71.09   218.21   242.53   309.46   372.77
          (Kelvin)            399.86   533.25   657.11   730.46   823.18
                              976.79  1056.26  1081.95  1180.83  1198.28
                             1249.57  1305.84  1358.80  1387.86  1424.14
                             1458.06  1506.18  1552.43  1635.14  1644.47
                             1669.94  1694.30  1768.59  1781.03  1832.96
                             1840.81  1883.04  1908.98  1992.98  2024.23
                             2035.85  2122.25  2146.17  2159.77  2165.49
                             2616.70  4165.17  4373.31  4417.87  4428.64
                             4439.21  4461.40  4484.64  4491.21  4493.79
                             4514.14

 Zero-point correction=                           0.158795 (Hartree/Particle)
 Thermal correction to Energy=                    0.167155
 Thermal correction to Enthalpy=                  0.168099
 Thermal correction to Gibbs Free Energy=         0.125494
 Sum of electronic and zero-point Energies=           -423.018819
 Sum of electronic and thermal Energies=              -423.010459
 Sum of electronic and thermal Enthalpies=            -423.009515
 Sum of electronic and thermal Free Energies=         -423.052120

                     E (Thermal)             CV                S
                      KCal/Mol        Cal/Mol-Kelvin    Cal/Mol-Kelvin
 Total                  104.891             31.622             89.670
 Electronic               0.000              0.000              0.000
 Translational            0.889              2.981             40.409
 Rotational               0.889              2.981             28.550
 Vibrational            103.114             25.661             20.712
 Vibration     1          0.595              1.978              4.841
 Vibration     2          0.619              1.901              2.651
 Vibration     3          0.625              1.881              2.451
 Vibration     4          0.645              1.818              2.000
 Vibration     5          0.668              1.747              1.668
 Vibration     6          0.679              1.714              1.546
 Vibration     7          0.743              1.533              1.077
 Vibration     8          0.815              1.346              0.776
 Vibration     9          0.863              1.233              0.639
 Vibration    10          0.928              1.092              0.500

 Optimization completed.
    -- Stationary point found.
 Normal termination of Gaussian 09 at Mon Jan 27 23:45:52 2020.
