 Gaussian 09, Revision D.01,
 Gaussian 09:  ES64L-G09RevD.01 24-Apr-2013

 -----------------------------
 # b3lyp 6-31G(2df,p) opt Freq
 -----------------------------

 -----
 titel
 -----
 Symbolic Z-matrix:
 Charge =  0 Multiplicity = 1

 SCF Done:  E(RB3LYP) =  -423.127719166     A.U. after   14 cycles
 Optimization completed.
    -- Stationary point found.
 Normal termination of Gaussian 09 at Tue Jan 28 13:25:44 2020.

 ----------------------------------------------------------------------
 #N Geom=AllCheck Guess=TCheck SCRF=Check GenChk RB3LYP/6-31G(2df,p) Fr
 eq
 ----------------------------------------------------------------------

 Structure from the checkpoint file:  "/scratch/puck/g09_abdfe5d0-7f39-4c8a-9e82-a1d05a6f9cf7/Gau-118412.chk"
 -----
 titel
 -----
 Charge =  0 Multiplicity = 1

                         Standard orientation:
 ---------------------------------------------------------------------
 Center     Atomic      Atomic             Coordinates (Angstroms)
 Number     Number       Type             X           Y           Z
 ---------------------------------------------------------------------
      1          6           0        0.645385    2.526071   -0.168616
      2          6           0        0.370725    1.046185   -0.380173
      3          6           0       -0.933833    0.458723    0.200602
      4          6           0       -1.851374   -0.316832   -0.728112
      5          8           0       -2.754944   -1.110447    0.014314
      6          8           0       -0.197975   -0.465557    1.049365
      7          6           0        1.079114    0.050314    0.588021
      8          6           0        1.941693   -0.960720    0.002870
      9          6           0        2.660997   -1.784506   -0.496497
     10          1           0       -0.029618    3.138785   -0.775270
     11          1           0        0.504219    2.810426    0.879714
     12          1           0        1.671626    2.780766   -0.453049
     13          1           0        0.521328    0.769182   -1.426764
     14          1           0       -1.518459    1.155634    0.815419
     15          1           0       -2.448885    0.373275   -1.335200
     16          1           0       -1.241118   -0.930084   -1.410884
     17          1           0       -2.211722   -1.644029    0.607533
     18          1           0        1.603015    0.555040    1.411176
     19          1           0        3.296719   -2.516380   -0.930670
 ---------------------------------------------------------------------

 SCF Done:  E(RB3LYP) =  -423.127719166     A.U. after    1 cycles

 The electronic state is 1-A.
 Alpha  occ. eigenvalues --  -19.14473 -19.13093 -10.26218 -10.23563 -10.22612
 Alpha  occ. eigenvalues --  -10.20651 -10.19081 -10.18835 -10.18477  -1.05043
 Alpha  occ. eigenvalues --   -1.01108  -0.79542  -0.77179  -0.72763  -0.68655
 Alpha  occ. eigenvalues --   -0.63984  -0.57074  -0.54522  -0.51285  -0.49107
 Alpha  occ. eigenvalues --   -0.47824  -0.47611  -0.42790  -0.42027  -0.41131
 Alpha  occ. eigenvalues --   -0.39575  -0.37182  -0.36397  -0.32132  -0.31528
 Alpha  occ. eigenvalues --   -0.28459  -0.27765  -0.27114  -0.25174
 Alpha virt. eigenvalues --    0.01472   0.04242   0.09160   0.10178   0.10797
 Alpha virt. eigenvalues --    0.11955   0.12965   0.13064   0.14206   0.15352
 Alpha virt. eigenvalues --    0.15859   0.16560   0.17893   0.19791   0.22123

 Mulliken charges:
               1
     1  C   -0.419141
     2  C   -0.079921
     3  C    0.121834
     4  C   -0.070679
     5  O   -0.421048
     6  O   -0.316747
     7  C   -0.049102
     8  C    0.323636
     9  C   -0.441056
    10  H    0.125463
    11  H    0.124850
    12  H    0.127060
    13  H    0.094077
    14  H    0.081141
    15  H    0.106581
    16  H    0.090202
    17  H    0.294890
    18  H    0.104052
    19  H    0.203908
 Sum of Mulliken charges =   0.00000

 Dipole moment (field-independent basis, Debye):
    X=              1.8510    Y=              1.5000    Z=             -0.9407  Tot=              2.5615
 Quadrupole moment (field-independent basis, Debye-Ang):
   XX=            -57.7262   YY=            -49.3735   ZZ=            -53.0345
   XY=             -4.0074   XZ=             -0.8945   YZ=              1.1299

  Exact polarizability:  87.567 -11.696  83.245  -3.904   4.598  63.303
 Approx polarizability: 120.630 -21.558 117.209 -11.246   9.542  99.902

                      1                      2                      3
                      A                      A                      A
 Frequencies --     30.5594               101.6494               142.1518
 Red. masses --      5.3898                 3.0152                 3.5064
 Frc consts  --      0.0030                 0.0184                 0.0417
 IR Inten    --      0.0863                 4.3029                 0.6264

                      4                      5                      6
                      A                      A                      A
 Frequencies --    166.5752               208.3272               229.3070
 Red. masses --      2.8866                 2.4213                 1.4124
 Frc consts  --      0.0472                 0.0619                 0.0438
 IR Inten    --      1.3463                 0.1793                 0.9978

                      7                      8                      9
                      A                      A                      A
 Frequencies --    271.2608               332.2391               414.9557
 Red. masses --      2.7796                 3.0295                 2.9457
 Frc consts  --      0.1205                 0.1970                 0.2988
 IR Inten    --      1.6201                 5.9571                 4.3408

                     10                     11                     12
                      A                      A                      A
 Frequencies --    452.8830               477.7213               529.0074
 Red. masses --      1.3213                 4.0090                 5.5738
 Frc consts  --      0.1597                 0.5391                 0.9190
 IR Inten    --     90.4899                 0.7374                11.1652

                     13                     14                     15
                      A                      A                      A
 Frequencies --    551.5198               621.1032               674.2570
 Red. masses --      3.0252                 1.2222                 1.2687
 Frc consts  --      0.5422                 0.2778                 0.3398
 IR Inten    --      9.1353                42.8862                34.1950

                     16                     17                     18
                      A                      A                      A
 Frequencies --    716.7705               849.1333               872.9640
 Red. masses --      4.2890                 2.4780                 1.9665
 Frc consts  --      1.2983                 1.0527                 0.8830
 IR Inten    --      0.4313                26.1278                 3.9210

                     19                     20                     21
                      A                      A                      A
 Frequencies --    931.3343               975.0573              1023.5115
 Red. masses --      1.7857                 4.8965                 3.9772
 Frc consts  --      0.9126                 2.7428                 2.4548
 IR Inten    --     21.0696                47.1504               150.9139

                     22                     23                     24
                      A                      A                      A
 Frequencies --   1045.2727              1064.5794              1094.8470
 Red. masses --      1.8743                 4.8838                 2.5305
 Frc consts  --      1.2066                 3.2611                 1.7871
 IR Inten    --      6.4129                45.8681                27.1537

                     25                     26                     27
                      A                      A                      A
 Frequencies --   1112.2133              1122.0876              1150.5270
 Red. masses --      2.1893                 2.0927                 2.3332
 Frc consts  --      1.5956                 1.5524                 1.8197
 IR Inten    --      8.7350                 5.1339                 1.6219

                     28                     29                     30
                      A                      A                      A
 Frequencies --   1218.4816              1224.3349              1263.9207
 Red. masses --      1.2977                 1.3141                 1.3057
 Frc consts  --      1.1351                 1.1606                 1.2289
 IR Inten    --     10.9975                 1.2159                 0.0687

                     31                     32                     33
                      A                      A                      A
 Frequencies --   1286.5984              1341.4023              1349.0497
 Red. masses --      1.3786                 1.2721                 1.3527
 Frc consts  --      1.3445                 1.3487                 1.4505
 IR Inten    --      5.9662                 9.5191                21.5689

                     34                     35                     36
                      A                      A                      A
 Frequencies --   1384.5690              1411.1253              1415.3125
 Red. masses --      1.2885                 1.4132                 1.2280
 Frc consts  --      1.4553                 1.6580                 1.4493
 IR Inten    --      6.4753                17.8903                 4.3766

                     37                     38                     39
                      A                      A                      A
 Frequencies --   1435.5925              1495.4301              1496.9556
 Red. masses --      1.4389                 1.0786                 1.0528
 Frc consts  --      1.7472                 1.4212                 1.3900
 IR Inten    --     55.4921                 1.2082                 4.0648

                     40                     41                     42
                      A                      A                      A
 Frequencies --   1497.2380              2233.8967              2974.2676
 Red. masses --      1.0564                 5.9278                 1.0684
 Frc consts  --      1.3953                17.4289                 5.5688
 IR Inten    --      5.6495                 2.1391                35.7579

                     43                     44                     45
                      A                      A                      A
 Frequencies --   3008.6803              3022.8046              3031.8467
 Red. masses --      1.0824                 1.0815                 1.0383
 Frc consts  --      5.7728                 5.8222                 5.6231
 IR Inten    --     26.1972                35.1290                31.9469

                     46                     47                     48
                      A                      A                      A
 Frequencies --   3066.4539              3073.7399              3101.8209
 Red. masses --      1.0946                 1.0869                 1.1012
 Frc consts  --      6.0643                 6.0504                 6.2426
 IR Inten    --     39.4154                 9.5086                19.8407

                     49                     50                     51
                      A                      A                      A
 Frequencies --   3104.2551              3501.5268              3784.8767
 Red. masses --      1.1005                 1.1623                 1.0655
 Frc consts  --      6.2482                 8.3962                 8.9929
 IR Inten    --     31.1748                66.0632                26.6713

 - Thermochemistry -
 -------------------
 Temperature   298.150 Kelvin.  Pressure   1.00000 Atm.
 Atom     1 has atomic number  6 and mass  12.00000

 Molecular mass:   126.06808 amu.
 Principal axes and moments of inertia in atomic units:
                           1         2         3
     Eigenvalues --   887.843011432.528961999.36241
           X            0.99997   0.00720   0.00193
           Y           -0.00722   0.99993   0.00894
           Z           -0.00186  -0.00896   0.99996
 This molecule is an asymmetric top.
 Rotational symmetry number  1.
 Warning -- assumption of classical behavior for rotation
           may cause significant error
 Rotational temperatures (Kelvin)      0.09756     0.06046     0.04332
 Rotational constants (GHZ):           2.03273     1.25983     0.90266
 Zero-point vibrational energy     412029.7 (Joules/Mol)
                                   98.47747 (Kcal/Mol)
 Warning -- explicit consideration of  13 degrees of freedom as
           vibrations may cause significant error
 Vibrational temperatures:     43.97   146.25   204.52   239.66   299.74
          (Kelvin)            329.92   390.28   478.02   597.03   651.60
                              687.33   761.12   793.51   893.63   970.10
                             1031.27  1221.71  1256.00  1339.98  1402.89
                             1472.60  1503.91  1531.69  1575.24  1600.22
                             1614.43  1655.35  1753.12  1761.54  1818.50
                             1851.13  1929.98  1940.98  1992.08  2030.29
                             2036.32  2065.49  2151.59  2153.78  2154.19
                             3214.08  4279.30  4328.81  4349.14  4362.15
                             4411.94  4422.42  4462.82  4466.33  5037.91
                             5445.59

 Zero-point correction=                           0.156934 (Hartree/Particle)
 Thermal correction to Energy=                    0.166634
 Thermal correction to Enthalpy=                  0.167578
 Thermal correction to Gibbs Free Energy=         0.121556
 Sum of electronic and zero-point Energies=           -422.970785
 Sum of electronic and thermal Energies=              -422.961085
 Sum of electronic and thermal Enthalpies=            -422.960141
 Sum of electronic and thermal Free Energies=         -423.006163

                     E (Thermal)             CV                S
                      KCal/Mol        Cal/Mol-Kelvin    Cal/Mol-Kelvin
 Total                  104.564             35.352             96.861
 Electronic               0.000              0.000              0.000
 Translational            0.889              2.981             40.409
 Rotational               0.889              2.981             29.321
 Vibrational            102.787             29.390             27.132
 Vibration     1          0.594              1.984              5.793
 Vibration     2          0.604              1.948              3.422
 Vibration     3          0.616              1.911              2.775
 Vibration     4          0.624              1.884              2.474
 Vibration     5          0.642              1.828              2.058
 Vibration     6          0.652              1.796              1.884
 Vibration     7          0.675              1.726              1.588
 Vibration     8          0.714              1.611              1.249
 Vibration     9          0.778              1.438              0.909
 Vibration    10          0.811              1.355              0.787
 Vibration    11          0.834              1.299              0.716
 Vibration    12          0.884              1.186              0.589
 Vibration    13          0.907              1.136              0.541

 Normal termination of Gaussian 09 at Tue Jan 28 14:04:54 2020.
