 Gaussian 09, Revision D.01,
 Gaussian 09:  ES64L-G09RevD.01 24-Apr-2013

 -----------------------------
 # b3lyp 6-31G(2df,p) opt Freq
 -----------------------------

 -----
 titel
 -----
 Symbolic Z-matrix:
 Charge =  0 Multiplicity = 1

 SCF Done:  E(RB3LYP) =  -423.143250185     A.U. after   12 cycles
 Optimization completed.
    -- Stationary point found.
 Normal termination of Gaussian 09 at Mon Jan 27 23:47:18 2020.

 ----------------------------------------------------------------------
 #N Geom=AllCheck Guess=TCheck SCRF=Check GenChk RB3LYP/6-31G(2df,p) Fr
 eq
 ----------------------------------------------------------------------

 Structure from the checkpoint file:  "/scratch/puck/g09_24f4f231-14e2-468d-b494-8c8dd2ad0016/Gau-78014.chk"
 -----
 titel
 -----
 Charge =  0 Multiplicity = 1

                         Standard orientation:
 ---------------------------------------------------------------------
 Center     Atomic      Atomic             Coordinates (Angstroms)
 Number     Number       Type             X           Y           Z
 ---------------------------------------------------------------------
      1          8           0        0.436961    2.073077    0.635761
      2          6           0        0.395117    1.090565   -0.364788
      3          6           0       -0.957968    0.574267   -0.923045
      4          6           0       -1.930867    0.100242    0.182113
      5          6           0       -1.107163   -1.198644    0.357327
      6          6           0        0.205520   -0.987859    1.156525
      7          6           0        0.866850   -0.352901   -0.085446
      8          8           0        2.228982   -0.535665   -0.306852
      9          6           0       -0.342380   -0.871576   -0.977788
     10          1           0       -0.134759    1.794424    1.358468
     11          1           0        1.004225    1.470987   -1.190937
     12          1           0       -1.375707    1.110543   -1.774570
     13          1           0       -2.075828    0.742312    1.060907
     14          1           0       -2.916278   -0.115985   -0.239531
     15          1           0       -1.653083   -2.123737    0.541369
     16          1           0        0.174704   -0.406397    2.086032
     17          1           0        0.677406   -1.952964    1.377271
     18          1           0        2.464302   -1.437192   -0.063004
     19          1           0       -0.267175   -1.505859   -1.856666
 ---------------------------------------------------------------------

 SCF Done:  E(RB3LYP) =  -423.143250185     A.U. after    1 cycles

 The electronic state is 1-A.
 Alpha  occ. eigenvalues --  -19.14128 -19.13426 -10.23138 -10.22388 -10.19303
 Alpha  occ. eigenvalues --  -10.18691 -10.18644 -10.18444 -10.18384  -1.03037
 Alpha  occ. eigenvalues --   -1.01419  -0.89248  -0.74167  -0.73246  -0.64333
 Alpha  occ. eigenvalues --   -0.59854  -0.59081  -0.53397  -0.52058  -0.48806
 Alpha  occ. eigenvalues --   -0.47322  -0.43674  -0.43143  -0.41300  -0.39440
 Alpha  occ. eigenvalues --   -0.37924  -0.36448  -0.34888  -0.32940  -0.30800
 Alpha  occ. eigenvalues --   -0.30121  -0.26769  -0.25558  -0.24388
 Alpha virt. eigenvalues --    0.06378   0.07762   0.08660   0.11060   0.11742
 Alpha virt. eigenvalues --    0.12996   0.15095   0.15620   0.16208   0.17633
 Alpha virt. eigenvalues --    0.18602   0.19527   0.20745   0.22418   0.22946

 Mulliken charges:
               1
     1  O   -0.435498
     2  C    0.117430
     3  C   -0.085089
     4  C   -0.243703
     5  C   -0.028831
     6  C   -0.317318
     7  C    0.381888
     8  O   -0.483698
     9  C   -0.133289
    10  H    0.281315
    11  H    0.100878
    12  H    0.068946
    13  H    0.079760
    14  H    0.106288
    15  H    0.068673
    16  H    0.088769
    17  H    0.091786
    18  H    0.275404
    19  H    0.066289
 Sum of Mulliken charges =   0.00000

 Dipole moment (field-independent basis, Debye):
    X=             -1.4887    Y=             -2.4161    Z=              0.4940  Tot=              2.8806
 Quadrupole moment (field-independent basis, Debye-Ang):
   XX=            -54.7632   YY=            -53.9551   ZZ=            -51.0018
   XY=             -4.8540   XZ=              0.2100   YZ=             -0.5883

  Exact polarizability:  77.686  -1.722  73.580   0.017  -1.800  69.891
 Approx polarizability: 110.794  -0.855 109.064  -1.192  -0.160 106.599

                      1                      2                      3
                      A                      A                      A
 Frequencies --    160.4536               217.5577               245.2954
 Red. masses --      3.9981                 1.2709                 2.3491
 Frc consts  --      0.0606                 0.0354                 0.0833
 IR Inten    --      3.2059                47.5060                15.7692

                      4                      5                      6
                      A                      A                      A
 Frequencies --    265.1441               293.1470               343.0862
 Red. masses --      2.1028                 1.7334                 2.2209
 Frc consts  --      0.0871                 0.0878                 0.1540
 IR Inten    --     16.6169                50.1472                41.7952

                      7                      8                      9
                      A                      A                      A
 Frequencies --    402.9958               475.8737               573.2706
 Red. masses --      2.3686                 2.9668                 3.5219
 Frc consts  --      0.2266                 0.3958                 0.6819
 IR Inten    --      8.1033                11.5854                 3.8638

                     10                     11                     12
                      A                      A                      A
 Frequencies --    593.1310               602.2900               725.6781
 Red. masses --      3.7132                 3.0328                 3.3735
 Frc consts  --      0.7697                 0.6482                 1.0467
 IR Inten    --      5.5695                 2.4988                 5.0881

                     13                     14                     15
                      A                      A                      A
 Frequencies --    796.3187               833.9407               847.0739
 Red. masses --      2.2218                 1.9116                 2.0711
 Frc consts  --      0.8301                 0.7833                 0.8756
 IR Inten    --      7.7474                 6.9226                 4.1907

                     16                     17                     18
                      A                      A                      A
 Frequencies --    864.1246               887.3300               933.2756
 Red. masses --      2.1765                 2.4871                 2.3709
 Frc consts  --      0.9576                 1.1537                 1.2167
 IR Inten    --      2.8125                 5.9988                 3.3969

                     19                     20                     21
                      A                      A                      A
 Frequencies --    948.7389               996.8423              1026.5249
 Red. masses --      2.3916                 2.0932                 1.9605
 Frc consts  --      1.2683                 1.2255                 1.2172
 IR Inten    --      2.2425                 6.6947                20.1053

                     22                     23                     24
                      A                      A                      A
 Frequencies --   1049.8276              1054.9184              1090.4340
 Red. masses --      2.2108                 1.8055                 1.5078
 Frc consts  --      1.4356                 1.1838                 1.0563
 IR Inten    --      6.7644                 3.1088                22.3897

                     25                     26                     27
                      A                      A                      A
 Frequencies --   1101.1815              1114.3322              1140.7671
 Red. masses --      1.6069                 1.9033                 1.8858
 Frc consts  --      1.1481                 1.3925                 1.4459
 IR Inten    --     12.4708                31.0675               100.9884

                     28                     29                     30
                      A                      A                      A
 Frequencies --   1157.2438              1191.3270              1199.0588
 Red. masses --      1.3131                 1.4592                 2.4641
 Frc consts  --      1.0361                 1.2202                 2.0873
 IR Inten    --     24.0001                22.5616                39.4657

                     31                     32                     33
                      A                      A                      A
 Frequencies --   1229.5037              1240.6527              1266.6622
 Red. masses --      1.6284                 1.8836                 1.6753
 Frc consts  --      1.4503                 1.7082                 1.5836
 IR Inten    --      3.4547                19.3615                 6.8148

                     34                     35                     36
                      A                      A                      A
 Frequencies --   1288.0379              1303.3013              1318.1729
 Red. masses --      1.5136                 1.5104                 1.8179
 Frc consts  --      1.4795                 1.5116                 1.8611
 IR Inten    --     20.1179                 5.0066                28.0978

                     37                     38                     39
                      A                      A                      A
 Frequencies --   1346.5503              1384.4479              1439.8783
 Red. masses --      1.8473                 1.6037                 1.3820
 Frc consts  --      1.9734                 1.8111                 1.6882
 IR Inten    --     65.2832                13.2040                66.2266

                     40                     41                     42
                      A                      A                      A
 Frequencies --   1483.0311              1495.9324              3015.0668
 Red. masses --      1.1310                 1.1130                 1.0655
 Frc consts  --      1.4656                 1.4675                 5.7068
 IR Inten    --      2.1119                 3.3871                46.1506

                     43                     44                     45
                      A                      A                      A
 Frequencies --   3021.1061              3066.6454              3071.1236
 Red. masses --      1.0589                 1.1056                 1.0866
 Frc consts  --      5.6945                 6.1261                 6.0383
 IR Inten    --     52.6499                28.0758                19.0841

                     46                     47                     48
                      A                      A                      A
 Frequencies --   3085.8294              3104.6774              3110.0926
 Red. masses --      1.0971                 1.0894                 1.0900
 Frc consts  --      6.1549                 6.1866                 6.2121
 IR Inten    --     10.0122                59.8650                36.7181

                     49                     50                     51
                      A                      A                      A
 Frequencies --   3155.9676              3803.3451              3811.5907
 Red. masses --      1.0932                 1.0658                 1.0656
 Frc consts  --      6.4156                 9.0836                 9.1211
 IR Inten    --     25.8473                13.4144                 8.5467

 - Thermochemistry -
 -------------------
 Temperature   298.150 Kelvin.  Pressure   1.00000 Atm.
 Atom     1 has atomic number  8 and mass  15.99491

 Molecular mass:   126.06808 amu.
 Principal axes and moments of inertia in atomic units:
                           1         2         3
     Eigenvalues --   779.40291 921.637221222.63012
           X            0.99815  -0.06073   0.00259
           Y            0.06078   0.99779  -0.02697
           Z           -0.00095   0.02707   0.99963
 This molecule is an asymmetric top.
 Rotational symmetry number  1.
 Warning -- assumption of classical behavior for rotation
           may cause significant error
 Rotational temperatures (Kelvin)      0.11113     0.09398     0.07084
 Rotational constants (GHZ):           2.31554     1.95819     1.47611
 Zero-point vibrational energy     419726.5 (Joules/Mol)
                                  100.31705 (Kcal/Mol)
 Warning -- explicit consideration of  11 degrees of freedom as
           vibrations may cause significant error
 Vibrational temperatures:    230.86   313.02   352.92   381.48   421.77
          (Kelvin)            493.62   579.82   684.68   824.81   853.38
                              866.56  1044.09  1145.72  1199.85  1218.75
                             1243.28  1276.67  1342.77  1365.02  1434.23
                             1476.94  1510.47  1517.79  1568.89  1584.35
                             1603.27  1641.31  1665.01  1714.05  1725.18
                             1768.98  1785.02  1822.44  1853.20  1875.16
                             1896.55  1937.38  1991.91  2071.66  2133.75
                             2152.31  4338.00  4346.69  4412.21  4418.66
                             4439.81  4466.93  4474.72  4540.73  5472.16
                             5484.02

 Zero-point correction=                           0.159865 (Hartree/Particle)
 Thermal correction to Energy=                    0.167578
 Thermal correction to Enthalpy=                  0.168522
 Thermal correction to Gibbs Free Energy=         0.128290
 Sum of electronic and zero-point Energies=           -422.983385
 Sum of electronic and thermal Energies=              -422.975673
 Sum of electronic and thermal Enthalpies=            -422.974728
 Sum of electronic and thermal Free Energies=         -423.014960

                     E (Thermal)             CV                S
                      KCal/Mol        Cal/Mol-Kelvin    Cal/Mol-Kelvin
 Total                  105.157             31.519             84.674
 Electronic               0.000              0.000              0.000
 Translational            0.889              2.981             40.409
 Rotational               0.889              2.981             28.265
 Vibrational            103.379             25.557             16.001
 Vibration     1          0.622              1.891              2.544
 Vibration     2          0.646              1.814              1.979
 Vibration     3          0.660              1.771              1.764
 Vibration     4          0.671              1.737              1.628
 Vibration     5          0.688              1.687              1.456
 Vibration     6          0.722              1.589              1.198
 Vibration     7          0.768              1.464              0.952
 Vibration     8          0.833              1.304              0.721
 Vibration     9          0.930              1.089              0.498
 Vibration    10          0.951              1.046              0.462
 Vibration    11          0.961              1.027              0.446

 Optimization completed.
    -- Stationary point found.
 Normal termination of Gaussian 09 at Tue Jan 28 00:36:04 2020.
