 Gaussian 09, Revision D.01,
 Gaussian 09:  ES64L-G09RevD.01 24-Apr-2013

 -----------------------------
 # b3lyp 6-31G(2df,p) opt Freq
 -----------------------------

 -----
 titel
 -----
 Symbolic Z-matrix:
 Charge =  0 Multiplicity = 1

 SCF Done:  E(RB3LYP) =  -423.158678971     A.U. after   14 cycles
 Optimization completed.
    -- Stationary point found.
 Normal termination of Gaussian 09 at Mon Jan 27 23:05:57 2020.

 ----------------------------------------------------------------------
 #N Geom=AllCheck Guess=TCheck SCRF=Check GenChk RB3LYP/6-31G(2df,p) Fr
 eq
 ----------------------------------------------------------------------

 Structure from the checkpoint file:  "/scratch/puck/g09_9120e7dc-c91c-4a9a-b858-1ce4894f991b/Gau-103129.chk"
 -----
 titel
 -----
 Charge =  0 Multiplicity = 1

                         Standard orientation:
 ---------------------------------------------------------------------
 Center     Atomic      Atomic             Coordinates (Angstroms)
 Number     Number       Type             X           Y           Z
 ---------------------------------------------------------------------
      1          6           0        0.153064    2.135375    0.448825
      2          6           0        0.072129    0.956634   -0.527507
      3          6           0       -1.343481    0.396254   -0.691555
      4          8           0       -1.946795   -0.100217    0.505959
      5          6           0       -1.352774   -1.044037   -0.386794
      6          6           0        0.062474   -1.444437   -0.008148
      7          8           0        0.551333   -0.799100    1.170321
      8          6           0        0.929568   -0.253068   -0.102893
      9          6           0        2.401839   -0.275784   -0.414012
     10          1           0        1.180199    2.501240    0.544985
     11          1           0       -0.468154    2.970160    0.109780
     12          1           0       -0.197248    1.819114    1.433668
     13          1           0        0.415237    1.274812   -1.521351
     14          1           0       -2.031533    0.866386   -1.391818
     15          1           0       -2.025494   -1.763721   -0.844620
     16          1           0        0.409196   -2.460728   -0.177820
     17          1           0        2.849431   -1.208851   -0.062870
     18          1           0        2.577622   -0.182913   -1.490898
     19          1           0        2.917524    0.553411    0.083201
 ---------------------------------------------------------------------

 SCF Done:  E(RB3LYP) =  -423.158678971     A.U. after    1 cycles

 The electronic state is 1-A.
 Alpha  occ. eigenvalues --  -19.15058 -19.14768 -10.24048 -10.23763 -10.23524
 Alpha  occ. eigenvalues --  -10.23519 -10.19723 -10.18609 -10.17505  -1.08739
 Alpha  occ. eigenvalues --   -1.05564  -0.79968  -0.73552  -0.72343  -0.66077
 Alpha  occ. eigenvalues --   -0.61829  -0.58184  -0.55347  -0.53017  -0.46634
 Alpha  occ. eigenvalues --   -0.46309  -0.44534  -0.42471  -0.41780  -0.39768
 Alpha  occ. eigenvalues --   -0.39203  -0.38240  -0.36665  -0.35777  -0.34401
 Alpha  occ. eigenvalues --   -0.31673  -0.27342  -0.26293  -0.25743
 Alpha virt. eigenvalues --    0.06020   0.08172   0.10699   0.11352   0.11877
 Alpha virt. eigenvalues --    0.13388   0.14450   0.15529   0.16627   0.17230
 Alpha virt. eigenvalues --    0.17398   0.18388   0.18894   0.20780   0.22099

 Mulliken charges:
               1
     1  C   -0.397482
     2  C   -0.089243
     3  C    0.021787
     4  O   -0.234702
     5  C    0.008887
     6  C   -0.063762
     7  O   -0.275484
     8  C    0.392135
     9  C   -0.482979
    10  H    0.113060
    11  H    0.113317
    12  H    0.153058
    13  H    0.074733
    14  H    0.094622
    15  H    0.096486
    16  H    0.092025
    17  H    0.131573
    18  H    0.120927
    19  H    0.131041
 Sum of Mulliken charges =   0.00000

 Dipole moment (field-independent basis, Debye):
    X=              1.0802    Y=             -0.0458    Z=             -3.0014  Tot=              3.1902
 Quadrupole moment (field-independent basis, Debye-Ang):
   XX=            -53.5690   YY=            -49.0780   ZZ=            -55.3919
   XY=              0.7877   XZ=              2.0188   YZ=              1.2648

  Exact polarizability:  78.815   2.484  80.986   1.530  -0.516  60.676
 Approx polarizability: 106.301   4.895 116.169  -0.988  -2.988 102.626

                      1                      2                      3
                      A                      A                      A
 Frequencies --    132.2862               190.9306               208.8992
 Red. masses --      2.7885                 1.1661                 1.2374
 Frc consts  --      0.0288                 0.0250                 0.0318
 IR Inten    --      1.7013                 0.6677                 1.0653

                      4                      5                      6
                      A                      A                      A
 Frequencies --    227.4746               236.7027               281.0948
 Red. masses --      2.0443                 2.8308                 3.3080
 Frc consts  --      0.0623                 0.0934                 0.1540
 IR Inten    --      1.0282                 2.3582                 0.6554

                      7                      8                      9
                      A                      A                      A
 Frequencies --    373.3674               433.6193               546.2286
 Red. masses --      5.6140                 2.9353                 3.8691
 Frc consts  --      0.4611                 0.3252                 0.6801
 IR Inten    --      0.7306                 2.9675                 5.4921

                     10                     11                     12
                      A                      A                      A
 Frequencies --    564.9356               661.3006               705.1282
 Red. masses --      4.2243                 3.8799                 3.9209
 Frc consts  --      0.7943                 0.9997                 1.1486
 IR Inten    --      9.0062                 3.0226                 6.2453

                     13                     14                     15
                      A                      A                      A
 Frequencies --    716.7158               820.5341               846.1152
 Red. masses --      5.2666                 3.1487                 3.1981
 Frc consts  --      1.5939                 1.2490                 1.3490
 IR Inten    --      9.4894                15.0842                 5.1838

                     16                     17                     18
                      A                      A                      A
 Frequencies --    852.0762               892.0314               936.4392
 Red. masses --      2.1619                 2.6363                 2.7634
 Frc consts  --      0.9248                 1.2360                 1.4278
 IR Inten    --      0.7816                28.7653                 2.4936

                     19                     20                     21
                      A                      A                      A
 Frequencies --    941.5948              1000.1056              1019.2755
 Red. masses --      2.7654                 1.5873                 1.5704
 Frc consts  --      1.4446                 0.9354                 0.9613
 IR Inten    --     15.2437                 3.4811                 9.0063

                     22                     23                     24
                      A                      A                      A
 Frequencies --   1037.1129              1055.1082              1091.7154
 Red. masses --      1.6689                 2.0284                 1.3769
 Frc consts  --      1.0576                 1.3305                 0.9669
 IR Inten    --      1.6448                 3.5913                 1.3937

                     25                     26                     27
                      A                      A                      A
 Frequencies --   1094.9795              1121.5944              1149.1590
 Red. masses --      1.7971                 1.7654                 2.1054
 Frc consts  --      1.2695                 1.3085                 1.6381
 IR Inten    --      3.8296                 0.7239                 5.2006

                     28                     29                     30
                      A                      A                      A
 Frequencies --   1223.1351              1249.8919              1279.4893
 Red. masses --      2.0329                 1.4350                 1.4809
 Frc consts  --      1.7919                 1.3208                 1.4284
 IR Inten    --      7.6087                 2.8939                 3.8366

                     31                     32                     33
                      A                      A                      A
 Frequencies --   1321.5974              1324.0835              1343.5290
 Red. masses --      1.7730                 1.4019                 1.6371
 Frc consts  --      1.8245                 1.4481                 1.7411
 IR Inten    --      7.0830                 0.5655                 1.8828

                     34                     35                     36
                      A                      A                      A
 Frequencies --   1398.9844              1406.3544              1425.7961
 Red. masses --      1.4648                 1.3056                 2.3385
 Frc consts  --      1.6891                 1.5214                 2.8010
 IR Inten    --      9.7324                 4.0869                20.8165

                     37                     38                     39
                      A                      A                      A
 Frequencies --   1449.0660              1483.3193              1494.6542
 Red. masses --      2.8074                 1.0903                 1.1117
 Frc consts  --      3.4732                 1.4133                 1.4632
 IR Inten    --      5.0437                 8.0869                 1.7901

                     40                     41                     42
                      A                      A                      A
 Frequencies --   1496.2883              1503.6382              3020.2941
 Red. masses --      1.0461                 1.0579                 1.0809
 Frc consts  --      1.3799                 1.4092                 5.8093
 IR Inten    --      2.4183                 5.9744                16.2407

                     43                     44                     45
                      A                      A                      A
 Frequencies --   3033.9012              3041.7173              3095.3742
 Red. masses --      1.0376                 1.0362                 1.1002
 Frc consts  --      5.6272                 5.6487                 6.2111
 IR Inten    --     20.4254                29.2312                17.4131

                     46                     47                     48
                      A                      A                      A
 Frequencies --   3103.8038              3123.2693              3126.8575
 Red. masses --      1.1016                 1.1009                 1.0892
 Frc consts  --      6.2524                 6.3271                 6.2747
 IR Inten    --     25.3834                12.2586                25.7697

                     49                     50                     51
                      A                      A                      A
 Frequencies --   3136.2842              3142.7055              3160.3895
 Red. masses --      1.1007                 1.0894                 1.0946
 Frc consts  --      6.3788                 6.3396                 6.4417
 IR Inten    --     13.7271                18.1689                37.8094

 - Thermochemistry -
 -------------------
 Temperature   298.150 Kelvin.  Pressure   1.00000 Atm.
 Atom     1 has atomic number  6 and mass  12.00000

 Molecular mass:   126.06808 amu.
 Principal axes and moments of inertia in atomic units:
                           1         2         3
     Eigenvalues --   716.51682 976.868251329.49871
           X            0.99998   0.00572   0.00133
           Y           -0.00576   0.99941   0.03374
           Z           -0.00113  -0.03374   0.99943
 This molecule is an asymmetric top.
 Rotational symmetry number  1.
 Warning -- assumption of classical behavior for rotation
           may cause significant error
 Rotational temperatures (Kelvin)      0.12088     0.08866     0.06515
 Rotational constants (GHZ):           2.51877     1.84748     1.35746
 Zero-point vibrational energy     415827.6 (Joules/Mol)
                                   99.38519 (Kcal/Mol)
 Warning -- explicit consideration of  10 degrees of freedom as
           vibrations may cause significant error
 Vibrational temperatures:    190.33   274.71   300.56   327.28   340.56
          (Kelvin)            404.43   537.19   623.88   785.90   812.82
                              951.46  1014.52  1031.19  1180.56  1217.37
                             1225.95  1283.43  1347.33  1354.74  1438.93
                             1466.51  1492.17  1518.06  1570.73  1575.43
                             1613.72  1653.38  1759.82  1798.31  1840.90
                             1901.48  1905.06  1933.04  2012.82  2023.43
                             2051.40  2084.88  2134.16  2150.47  2152.82
                             2163.40  4345.52  4365.10  4376.35  4453.55
                             4465.68  4493.68  4498.84  4512.41  4521.65
                             4547.09

 Zero-point correction=                           0.158380 (Hartree/Particle)
 Thermal correction to Energy=                    0.166509
 Thermal correction to Enthalpy=                  0.167453
 Thermal correction to Gibbs Free Energy=         0.126180
 Sum of electronic and zero-point Energies=           -423.000299
 Sum of electronic and thermal Energies=              -422.992170
 Sum of electronic and thermal Enthalpies=            -422.991226
 Sum of electronic and thermal Free Energies=         -423.032499

                     E (Thermal)             CV                S
                      KCal/Mol        Cal/Mol-Kelvin    Cal/Mol-Kelvin
 Total                  104.486             31.824             86.866
 Electronic               0.000              0.000              0.000
 Translational            0.889              2.981             40.409
 Rotational               0.889              2.981             28.322
 Vibrational            102.708             25.862             18.135
 Vibration     1          0.612              1.921              2.913
 Vibration     2          0.634              1.852              2.219
 Vibration     3          0.642              1.827              2.053
 Vibration     4          0.651              1.799              1.899
 Vibration     5          0.656              1.785              1.828
 Vibration     6          0.681              1.709              1.527
 Vibration     7          0.745              1.527              1.066
 Vibration     8          0.794              1.397              0.847
 Vibration     9          0.901              1.148              0.552
 Vibration    10          0.921              1.107              0.514

 Optimization completed.
    -- Stationary point found.
 Normal termination of Gaussian 09 at Mon Jan 27 23:52:19 2020.
