 Gaussian 09, Revision D.01,
 Gaussian 09:  ES64L-G09RevD.01 24-Apr-2013

 -----------------------------
 # b3lyp 6-31G(2df,p) opt Freq
 -----------------------------

 -----
 titel
 -----
 Symbolic Z-matrix:
 Charge =  0 Multiplicity = 1

 SCF Done:  E(RB3LYP) =  -423.142372762     A.U. after   14 cycles
 Optimization completed.
    -- Stationary point found.
 Normal termination of Gaussian 09 at Mon Jan 27 14:01:36 2020.

 ----------------------------------------------------------------------
 #N Geom=AllCheck Guess=TCheck SCRF=Check GenChk RB3LYP/6-31G(2df,p) Fr
 eq
 ----------------------------------------------------------------------

 Structure from the checkpoint file:  "/scratch/puck/g09_91017b69-e2d4-41c5-8322-93866c468cf2/Gau-50330.chk"
 -----
 titel
 -----
 Charge =  0 Multiplicity = 1

                         Standard orientation:
 ---------------------------------------------------------------------
 Center     Atomic      Atomic             Coordinates (Angstroms)
 Number     Number       Type             X           Y           Z
 ---------------------------------------------------------------------
      1          6           0        3.569299    0.058945    0.565342
      2          6           0        2.242807   -0.168690    0.010418
      3          6           0        1.156982   -0.394277   -0.464617
      4          6           0       -0.173202   -0.598760   -1.018238
      5          8           0       -1.025703   -1.433038   -0.199720
      6          6           0       -1.899333   -0.323877    0.151894
      7          6           0       -1.846445    0.023620    1.626357
      8          6           0       -1.143592    0.615461   -0.831172
      9          8           0       -0.619076    1.822213   -0.370834
     10          1           0        4.019010    0.968148    0.152022
     11          1           0        3.532020    0.169870    1.654242
     12          1           0        4.238891   -0.777163    0.337002
     13          1           0       -0.107246   -0.987324   -2.041511
     14          1           0       -2.929690   -0.547600   -0.152209
     15          1           0       -2.481531    0.890438    1.834946
     16          1           0       -2.204117   -0.821688    2.221784
     17          1           0       -0.826959    0.257952    1.944133
     18          1           0       -1.718861    0.834359   -1.733599
     19          1           0        0.197618    1.625083    0.107719
 ---------------------------------------------------------------------

 SCF Done:  E(RB3LYP) =  -423.142372762     A.U. after    1 cycles

 The electronic state is 1-A.
 Alpha  occ. eigenvalues --  -19.14136 -19.13351 -10.25270 -10.23838 -10.22845
 Alpha  occ. eigenvalues --  -10.21467 -10.19366 -10.18087 -10.17379  -1.04704
 Alpha  occ. eigenvalues --   -1.01679  -0.79281  -0.75500  -0.74136  -0.69954
 Alpha  occ. eigenvalues --   -0.65119  -0.56929  -0.52648  -0.51482  -0.47246
 Alpha  occ. eigenvalues --   -0.46648  -0.43872  -0.43717  -0.42791  -0.41263
 Alpha  occ. eigenvalues --   -0.39927  -0.39013  -0.37406  -0.35192  -0.30499
 Alpha  occ. eigenvalues --   -0.27803  -0.26903  -0.25551  -0.25164
 Alpha virt. eigenvalues --    0.02182   0.03946   0.08489   0.10359   0.11132
 Alpha virt. eigenvalues --    0.12694   0.13735   0.16063   0.16394   0.16889
 Alpha virt. eigenvalues --    0.17078   0.17856   0.18710   0.19342   0.21198

 Mulliken charges:
               1
     1  C   -0.501220
     2  C    0.082674
     3  C    0.078081
     4  C   -0.118820
     5  O   -0.295777
     6  C    0.106036
     7  C   -0.392114
     8  C    0.070906
     9  O   -0.424296
    10  H    0.155839
    11  H    0.154852
    12  H    0.158074
    13  H    0.102155
    14  H    0.076953
    15  H    0.124001
    16  H    0.124955
    17  H    0.114096
    18  H    0.099301
    19  H    0.284304
 Sum of Mulliken charges =   0.00000

 Dipole moment (field-independent basis, Debye):
    X=              1.5155    Y=              0.4583    Z=              0.3685  Tot=              1.6257
 Quadrupole moment (field-independent basis, Debye-Ang):
   XX=            -43.0050   YY=            -60.3696   ZZ=            -50.5855
   XY=              1.0348   XZ=              2.2528   YZ=              1.6182

  Exact polarizability: 108.399   2.476  62.820   6.755   2.539  69.913
 Approx polarizability: 149.015   7.402  97.306  17.353   5.411 100.222

                      1                      2                      3
                      A                      A                      A
 Frequencies --     33.4887                40.5976                88.8026
 Red. masses --      1.0239                 3.4121                 4.2976
 Frc consts  --      0.0007                 0.0033                 0.0200
 IR Inten    --      0.0293                 1.4977                 0.6607

                      4                      5                      6
                      A                      A                      A
 Frequencies --    133.2708               193.6721               236.5146
 Red. masses --      3.7790                 1.2147                 2.6648
 Frc consts  --      0.0395                 0.0268                 0.0878
 IR Inten    --      1.5365                 0.4578                 9.6000

                      7                      8                      9
                      A                      A                      A
 Frequencies --    256.0978               323.4334               349.8301
 Red. masses --      3.4279                 3.6534                 1.2499
 Frc consts  --      0.1325                 0.2252                 0.0901
 IR Inten    --     16.1972                 5.4781                69.0917

                     10                     11                     12
                      A                      A                      A
 Frequencies --    390.5699               401.5270               480.1452
 Red. masses --      3.0208                 3.9359                 6.1661
 Frc consts  --      0.2715                 0.3739                 0.8375
 IR Inten    --     12.8079                12.6780                 0.5772

                     13                     14                     15
                      A                      A                      A
 Frequencies --    551.5727               583.5444               731.1754
 Red. masses --      3.6524                 5.9845                 3.7499
 Frc consts  --      0.6547                 1.2007                 1.1812
 IR Inten    --      4.8569                 5.5637                 8.8279

                     16                     17                     18
                      A                      A                      A
 Frequencies --    801.4679               857.2525               878.4761
 Red. masses --      2.7575                 2.6976                 3.0814
 Frc consts  --      1.0436                 1.1680                 1.4011
 IR Inten    --      3.1020                 2.8196                20.1716

                     19                     20                     21
                      A                      A                      A
 Frequencies --    932.8232               990.9611              1037.8832
 Red. masses --      2.5197                 7.7687                 1.5705
 Frc consts  --      1.2918                 4.4948                 0.9968
 IR Inten    --      3.3244               128.4350                11.5851

                     22                     23                     24
                      A                      A                      A
 Frequencies --   1050.6878              1053.8410              1078.1967
 Red. masses --      1.4045                 1.4084                 2.3338
 Frc consts  --      0.9135                 0.9215                 1.5985
 IR Inten    --      1.0256                 0.5322                40.3911

                     25                     26                     27
                      A                      A                      A
 Frequencies --   1139.2726              1163.0006              1183.8752
 Red. masses --      2.6858                 2.6082                 2.1474
 Frc consts  --      2.0539                 2.0785                 1.7732
 IR Inten    --      1.8307                44.3437                71.5675

                     28                     29                     30
                      A                      A                      A
 Frequencies --   1203.4301              1257.8027              1305.1479
 Red. masses --      1.8517                 1.2793                 1.6098
 Frc consts  --      1.5800                 1.1925                 1.6156
 IR Inten    --     12.1511                 0.2341                 5.3095

                     31                     32                     33
                      A                      A                      A
 Frequencies --   1333.2182              1343.8796              1386.0513
 Red. masses --      1.3872                 1.3469                 1.3547
 Frc consts  --      1.4528                 1.4332                 1.5334
 IR Inten    --     11.0381                25.7052                 2.1362

                     34                     35                     36
                      A                      A                      A
 Frequencies --   1407.0320              1413.8227              1442.9866
 Red. masses --      1.3568                 1.2499                 1.2066
 Frc consts  --      1.5826                 1.4721                 1.4802
 IR Inten    --     17.9501                 4.8754                49.9429

                     37                     38                     39
                      A                      A                      A
 Frequencies --   1475.3280              1477.1806              1481.9854
 Red. masses --      1.0392                 1.0394                 1.0621
 Frc consts  --      1.3327                 1.3363                 1.3744
 IR Inten    --      6.6306                 6.5319                 7.4359

                     40                     41                     42
                      A                      A                      A
 Frequencies --   1492.2161              2352.9147              3021.5926
 Red. masses --      1.0504                11.8517                 1.0846
 Frc consts  --      1.3781                38.6582                 5.8341
 IR Inten    --      2.7576                19.8652                49.0247

                     43                     44                     45
                      A                      A                      A
 Frequencies --   3030.8980              3031.5476              3042.1090
 Red. masses --      1.0847                 1.0347                 1.0352
 Frc consts  --      5.8710                 5.6026                 5.6443
 IR Inten    --     30.8898                22.3217                11.5736

                     46                     47                     48
                      A                      A                      A
 Frequencies --   3086.6848              3094.7983              3095.3447
 Red. masses --      1.0878                 1.1002                 1.1005
 Frc consts  --      6.1066                 6.2083                 6.2122
 IR Inten    --     44.2370                 7.0845                 6.8492

                     49                     50                     51
                      A                      A                      A
 Frequencies --   3115.1412              3121.9345              3741.6675
 Red. masses --      1.1014                 1.1018                 1.0655
 Frc consts  --      6.2974                 6.3270                 8.7885
 IR Inten    --     14.9086                31.0335                65.6952

 - Thermochemistry -
 -------------------
 Temperature   298.150 Kelvin.  Pressure   1.00000 Atm.
 Atom     1 has atomic number  6 and mass  12.00000

 Molecular mass:   126.06808 amu.
 Principal axes and moments of inertia in atomic units:
                           1         2         3
     Eigenvalues --   679.487871810.718211889.39660
           X            0.99999   0.00366   0.00183
           Y           -0.00377   0.99811   0.06129
           Z           -0.00160  -0.06130   0.99812
 This molecule is an asymmetric top.
 Rotational symmetry number  1.
 Warning -- assumption of classical behavior for rotation
           may cause significant error
 Rotational temperatures (Kelvin)      0.12747     0.04783     0.04584
 Rotational constants (GHZ):           2.65603     0.99670     0.95519
 Zero-point vibrational energy     411017.1 (Joules/Mol)
                                   98.23545 (Kcal/Mol)
 Warning -- explicit consideration of  14 degrees of freedom as
           vibrations may cause significant error
 Vibrational temperatures:     48.18    58.41   127.77   191.75   278.65
          (Kelvin)            340.29   368.47   465.35   503.33   561.94
                              577.71   690.82   793.59   839.59  1052.00
                             1153.13  1233.39  1263.93  1342.12  1425.77
                             1493.28  1511.70  1516.24  1551.28  1639.16
                             1673.30  1703.33  1731.47  1809.70  1877.81
                             1918.20  1933.54  1994.22  2024.40  2034.17
                             2076.13  2122.67  2125.33  2132.24  2146.96
                             3385.32  4347.39  4360.78  4361.72  4376.91
                             4441.05  4452.72  4453.51  4481.99  4491.76
                             5383.42

 Zero-point correction=                           0.156548 (Hartree/Particle)
 Thermal correction to Energy=                    0.166740
 Thermal correction to Enthalpy=                  0.167684
 Thermal correction to Gibbs Free Energy=         0.119864
 Sum of electronic and zero-point Energies=           -422.985825
 Sum of electronic and thermal Energies=              -422.975633
 Sum of electronic and thermal Enthalpies=            -422.974689
 Sum of electronic and thermal Free Energies=         -423.022509

                     E (Thermal)             CV                S
                      KCal/Mol        Cal/Mol-Kelvin    Cal/Mol-Kelvin
 Total                  104.631             35.688            100.646
 Electronic               0.000              0.000              0.000
 Translational            0.889              2.981             40.409
 Rotational               0.889              2.981             29.232
 Vibrational            102.853             29.726             31.005
 Vibration     1          0.594              1.983              5.611
 Vibration     2          0.594              1.981              5.230
 Vibration     3          0.602              1.957              3.686
 Vibration     4          0.613              1.920              2.898
 Vibration     5          0.635              1.849              2.192
 Vibration     6          0.655              1.785              1.829
 Vibration     7          0.666              1.752              1.688
 Vibration     8          0.708              1.629              1.293
 Vibration     9          0.727              1.576              1.167
 Vibration    10          0.758              1.490              0.998
 Vibration    11          0.767              1.467              0.957
 Vibration    12          0.837              1.294              0.710
 Vibration    13          0.907              1.136              0.541
 Vibration    14          0.940              1.067              0.479

 Normal termination of Gaussian 09 at Mon Jan 27 14:39:13 2020.
