 Gaussian 09, Revision D.01,
 Gaussian 09:  ES64L-G09RevD.01 24-Apr-2013

 -----------------------------
 # b3lyp 6-31G(2df,p) opt Freq
 -----------------------------

 -----
 titel
 -----
 Symbolic Z-matrix:
 Charge =  0 Multiplicity = 1

 SCF Done:  E(RB3LYP) =  -423.192678915     A.U. after   14 cycles
 Optimization completed.
    -- Stationary point found.
 Normal termination of Gaussian 09 at Mon Jan 27 17:14:47 2020.

 ----------------------------------------------------------------------
 #N Geom=AllCheck Guess=TCheck SCRF=Check GenChk RB3LYP/6-31G(2df,p) Fr
 eq
 ----------------------------------------------------------------------

 Structure from the checkpoint file:  "/scratch/puck/g09_57d25b33-8452-419a-983f-8380dbca4cfc/Gau-50093.chk"
 -----
 titel
 -----
 Charge =  0 Multiplicity = 1

                         Standard orientation:
 ---------------------------------------------------------------------
 Center     Atomic      Atomic             Coordinates (Angstroms)
 Number     Number       Type             X           Y           Z
 ---------------------------------------------------------------------
      1          6           0       -2.151312   -0.965842    0.070847
      2          6           0       -0.747609   -0.422142    0.120540
      3          6           0       -0.016431   -0.110322    1.467850
      4          6           0        0.789128    0.986064    0.698561
      5          6           0        1.922074    0.314954   -0.116532
      6          6           0        1.482124   -1.110780   -0.507051
      7          8           0        0.079457   -1.219217   -0.746422
      8          6           0       -0.435977    1.057876   -0.230834
      9          8           0       -0.980201    1.917654   -0.859322
     10          1           0       -2.826652   -0.340334    0.661031
     11          1           0       -2.507911   -0.978807   -0.962792
     12          1           0       -2.182775   -1.988143    0.459381
     13          1           0       -0.710386    0.322335    2.192288
     14          1           0        0.542508   -0.921340    1.937052
     15          1           0        1.111485    1.893556    1.211115
     16          1           0        2.139424    0.919953   -1.002924
     17          1           0        2.842990    0.261809    0.475171
     18          1           0        1.970278   -1.440143   -1.428307
     19          1           0        1.775007   -1.815232    0.283640
 ---------------------------------------------------------------------

 SCF Done:  E(RB3LYP) =  -423.192678915     A.U. after    1 cycles

 The electronic state is 1-A.
 Alpha  occ. eigenvalues --  -19.14771 -19.13826 -10.26192 -10.24542 -10.23732
 Alpha  occ. eigenvalues --  -10.20375 -10.20109 -10.19754 -10.17907  -1.05161
 Alpha  occ. eigenvalues --   -1.03405  -0.85061  -0.78801  -0.71383  -0.66156
 Alpha  occ. eigenvalues --   -0.61637  -0.60664  -0.51184  -0.50075  -0.46816
 Alpha  occ. eigenvalues --   -0.45999  -0.45618  -0.43564  -0.41069  -0.40226
 Alpha  occ. eigenvalues --   -0.38895  -0.38625  -0.38450  -0.36264  -0.35339
 Alpha  occ. eigenvalues --   -0.33201  -0.30193  -0.27626  -0.22138
 Alpha virt. eigenvalues --   -0.01690   0.07695   0.10245   0.11431   0.12177
 Alpha virt. eigenvalues --    0.13581   0.13965   0.14367   0.16328   0.16731
 Alpha virt. eigenvalues --    0.17786   0.19101   0.19378   0.20813   0.21377

 Mulliken charges:
               1
     1  C   -0.469200
     2  C    0.308079
     3  C   -0.306318
     4  C   -0.151087
     5  C   -0.237346
     6  C   -0.070909
     7  O   -0.311604
     8  C    0.407921
     9  O   -0.322352
    10  H    0.122174
    11  H    0.142105
    12  H    0.124678
    13  H    0.114940
    14  H    0.111386
    15  H    0.088512
    16  H    0.124493
    17  H    0.108152
    18  H    0.116250
    19  H    0.100126
 Sum of Mulliken charges =   0.00000

 Dipole moment (field-independent basis, Debye):
    X=              1.8203    Y=             -1.2909    Z=              2.1585  Tot=              3.1047
 Quadrupole moment (field-independent basis, Debye-Ang):
   XX=            -49.8702   YY=            -58.3580   ZZ=            -53.4069
   XY=              2.1873   XZ=             -2.4534   YZ=              1.8787

  Exact polarizability:  83.328  -0.814  74.172   0.495  -1.173  68.153
 Approx polarizability: 113.039  -6.452 112.172   4.602  -5.031 106.427

                      1                      2                      3
                      A                      A                      A
 Frequencies --    125.5816               176.2856               189.0354
 Red. masses --      4.6541                 1.1088                 2.8665
 Frc consts  --      0.0432                 0.0203                 0.0604
 IR Inten    --      2.6795                 0.4493                 4.2676

                      4                      5                      6
                      A                      A                      A
 Frequencies --    226.5312               266.6414               310.7888
 Red. masses --      2.2790                 3.3110                 2.6929
 Frc consts  --      0.0689                 0.1387                 0.1532
 IR Inten    --      1.7591                 3.3314                 0.2551

                      7                      8                      9
                      A                      A                      A
 Frequencies --    415.7191               426.1035               494.1554
 Red. masses --      4.8655                 2.1574                 3.3704
 Frc consts  --      0.4954                 0.2308                 0.4849
 IR Inten    --      2.9528                 0.3388                 1.6909

                     10                     11                     12
                      A                      A                      A
 Frequencies --    561.2679               665.7374               696.7394
 Red. masses --      3.9765                 3.7220                 2.2348
 Frc consts  --      0.7381                 0.9719                 0.6392
 IR Inten    --      2.5735                 4.7207                 0.1752

                     13                     14                     15
                      A                      A                      A
 Frequencies --    782.3308               811.3043               829.9991
 Red. masses --      3.8054                 2.3211                 2.6129
 Frc consts  --      1.3723                 0.9001                 1.0606
 IR Inten    --      3.3840                 1.2853                 1.9582

                     16                     17                     18
                      A                      A                      A
 Frequencies --    855.9163               881.9357               923.6984
 Red. masses --      2.7196                 2.5762                 2.1879
 Frc consts  --      1.1739                 1.1806                 1.0999
 IR Inten    --      6.4996                13.3021                 3.7929

                     19                     20                     21
                      A                      A                      A
 Frequencies --    955.6369              1008.3797              1035.9772
 Red. masses --      2.1164                 1.6003                 1.8259
 Frc consts  --      1.1387                 0.9587                 1.1546
 IR Inten    --     18.1375                 6.5501                46.6835

                     22                     23                     24
                      A                      A                      A
 Frequencies --   1055.3139              1086.5837              1113.6881
 Red. masses --      1.7883                 2.3373                 2.0274
 Frc consts  --      1.1735                 1.6259                 1.4815
 IR Inten    --     15.0699                32.1155                24.8877

                     25                     26                     27
                      A                      A                      A
 Frequencies --   1127.1098              1176.6320              1199.2141
 Red. masses --      2.0153                 1.6602                 1.7330
 Frc consts  --      1.5084                 1.3542                 1.4684
 IR Inten    --      9.6622                 4.4824                10.3972

                     28                     29                     30
                      A                      A                      A
 Frequencies --   1214.1370              1246.3421              1268.7429
 Red. masses --      2.1743                 1.5644                 1.3826
 Frc consts  --      1.8884                 1.4318                 1.3113
 IR Inten    --     29.6194                 8.5502                 4.6222

                     31                     32                     33
                      A                      A                      A
 Frequencies --   1293.1335              1329.9836              1357.5066
 Red. masses --      1.2857                 2.8079                 1.4247
 Frc consts  --      1.2667                 2.9264                 1.5469
 IR Inten    --      4.1782                 6.6389                 0.8891

                     34                     35                     36
                      A                      A                      A
 Frequencies --   1403.8996              1410.5300              1476.9833
 Red. masses --      1.2626                 1.4010                 1.0476
 Frc consts  --      1.4662                 1.6423                 1.3464
 IR Inten    --      2.4960                11.0295                 3.0157

                     37                     38                     39
                      A                      A                      A
 Frequencies --   1483.8826              1488.6019              1493.7041
 Red. masses --      1.1069                 1.0542                 1.0850
 Frc consts  --      1.4360                 1.3764                 1.4263
 IR Inten    --      2.7071                 3.2231                 2.1313

                     40                     41                     42
                      A                      A                      A
 Frequencies --   1527.5287              1893.1134              3002.6874
 Red. masses --      1.0847                12.4269                 1.0715
 Frc consts  --      1.4912                26.2401                 5.6922
 IR Inten    --      1.6353               245.9796                45.8327

                     43                     44                     45
                      A                      A                      A
 Frequencies --   3037.8541              3044.4626              3074.8636
 Red. masses --      1.0601                 1.0349                 1.0589
 Frc consts  --      5.7640                 5.6516                 5.8987
 IR Inten    --     32.2231                13.3750                16.7554

                     46                     47                     48
                      A                      A                      A
 Frequencies --   3077.4979              3092.3731              3105.6217
 Red. masses --      1.0983                 1.0988                 1.0885
 Frc consts  --      6.1286                 6.1909                 6.1854
 IR Inten    --     19.8712                34.9814                23.4678

                     49                     50                     51
                      A                      A                      A
 Frequencies --   3118.5218              3124.7546              3134.2870
 Red. masses --      1.1018                 1.1016                 1.1076
 Frc consts  --      6.3132                 6.3371                 6.4109
 IR Inten    --     11.0517                11.2603                18.4756

 - Thermochemistry -
 -------------------
 Temperature   298.150 Kelvin.  Pressure   1.00000 Atm.
 Atom     1 has atomic number  6 and mass  12.00000

 Molecular mass:   126.06808 amu.
 Principal axes and moments of inertia in atomic units:
                           1         2         3
     Eigenvalues --   799.12198 969.154301258.12144
           X            0.99248   0.12079  -0.01978
           Y           -0.12043   0.99255   0.01853
           Z            0.02187  -0.01601   0.99963
 This molecule is an asymmetric top.
 Rotational symmetry number  1.
 Warning -- assumption of classical behavior for rotation
           may cause significant error
 Rotational temperatures (Kelvin)      0.10839     0.08937     0.06884
 Rotational constants (GHZ):           2.25841     1.86218     1.43447
 Zero-point vibrational energy     419287.0 (Joules/Mol)
                                  100.21201 (Kcal/Mol)
 Warning -- explicit consideration of  10 degrees of freedom as
           vibrations may cause significant error
 Vibrational temperatures:    180.68   253.64   271.98   325.93   383.64
          (Kelvin)            447.16   598.13   613.07   710.98   807.54
                              957.85  1002.45  1125.60  1167.28  1194.18
                             1231.47  1268.91  1328.99  1374.95  1450.83
                             1490.54  1518.36  1563.35  1602.35  1621.66
                             1692.91  1725.40  1746.87  1793.21  1825.44
                             1860.53  1913.55  1953.15  2019.90  2029.44
                             2125.05  2134.97  2141.76  2149.10  2197.77
                             2723.76  4320.19  4370.79  4380.30  4424.04
                             4427.83  4449.23  4468.29  4486.85  4495.82
                             4509.53

 Zero-point correction=                           0.159698 (Hartree/Particle)
 Thermal correction to Energy=                    0.167778
 Thermal correction to Enthalpy=                  0.168723
 Thermal correction to Gibbs Free Energy=         0.127454
 Sum of electronic and zero-point Energies=           -423.032981
 Sum of electronic and thermal Energies=              -423.024901
 Sum of electronic and thermal Enthalpies=            -423.023956
 Sum of electronic and thermal Free Energies=         -423.065225

                     E (Thermal)             CV                S
                      KCal/Mol        Cal/Mol-Kelvin    Cal/Mol-Kelvin
 Total                  105.283             31.488             86.857
 Electronic               0.000              0.000              0.000
 Translational            0.889              2.981             40.409
 Rotational               0.889              2.981             28.368
 Vibrational            103.505             25.526             18.080
 Vibration     1          0.611              1.927              3.013
 Vibration     2          0.628              1.872              2.367
 Vibration     3          0.633              1.855              2.237
 Vibration     4          0.650              1.801              1.906
 Vibration     5          0.672              1.734              1.618
 Vibration     6          0.700              1.653              1.358
 Vibration     7          0.779              1.436              0.907
 Vibration     8          0.788              1.413              0.871
 Vibration     9          0.850              1.263              0.673
 Vibration    10          0.917              1.115              0.521

 Normal termination of Gaussian 09 at Mon Jan 27 18:00:05 2020.
