 Gaussian 09, Revision D.01,
 Gaussian 09:  ES64L-G09RevD.01 24-Apr-2013

 -----------------------------
 # b3lyp 6-31G(2df,p) opt Freq
 -----------------------------

 -----
 titel
 -----
 Symbolic Z-matrix:
 Charge =  0 Multiplicity = 1

 SCF Done:  E(RB3LYP) =  -423.189956819     A.U. after   12 cycles
 Optimization completed.
    -- Stationary point found.
 Normal termination of Gaussian 09 at Mon Jan 27 23:45:41 2020.

 ----------------------------------------------------------------------
 #N Geom=AllCheck Guess=TCheck SCRF=Check GenChk RB3LYP/6-31G(2df,p) Fr
 eq
 ----------------------------------------------------------------------

 Structure from the checkpoint file:  "/scratch/puck/g09_7f89362d-a285-4392-af75-26b14bdd10ea/Gau-68005.chk"
 -----
 titel
 -----
 Charge =  0 Multiplicity = 1

                         Standard orientation:
 ---------------------------------------------------------------------
 Center     Atomic      Atomic             Coordinates (Angstroms)
 Number     Number       Type             X           Y           Z
 ---------------------------------------------------------------------
      1          8           0       -1.239785    1.788140    0.026395
      2          6           0       -0.462906    0.797554   -0.627606
      3          6           0        1.035581    0.930315   -0.285460
      4          6           0        1.059758    0.560913    1.218886
      5          6           0        0.306962   -0.759971    1.090410
      6          6           0        0.646705   -1.340023   -0.283001
      7          6           0        1.601734   -0.350763   -0.948785
      8          6           0       -0.655601   -0.609304   -0.068760
      9          8           0       -1.889659   -1.247264   -0.147694
     10          1           0       -2.163931    1.588058   -0.155012
     11          1           0       -0.634558    0.828911   -1.714164
     12          1           0        1.499969    1.874965   -0.565040
     13          1           0        2.079249    0.439880    1.599942
     14          1           0        0.532495    1.295013    1.832272
     15          1           0        0.077803   -1.409433    1.925750
     16          1           0        0.665963   -2.408228   -0.453486
     17          1           0        2.651140   -0.526776   -0.690544
     18          1           0        1.512826   -0.336467   -2.040055
     19          1           0       -2.378804   -1.045261    0.656622
 ---------------------------------------------------------------------

 SCF Done:  E(RB3LYP) =  -423.189956819     A.U. after    1 cycles

 The electronic state is 1-A.
 Alpha  occ. eigenvalues --  -19.14895 -19.13481 -10.22679 -10.22314 -10.18426
 Alpha  occ. eigenvalues --  -10.18350 -10.18309 -10.18107 -10.17609  -1.03676
 Alpha  occ. eigenvalues --   -1.01316  -0.90140  -0.74801  -0.70820  -0.69109
 Alpha  occ. eigenvalues --   -0.57081  -0.55788  -0.54607  -0.53485  -0.50098
 Alpha  occ. eigenvalues --   -0.46276  -0.44591  -0.44153  -0.39355  -0.38559
 Alpha  occ. eigenvalues --   -0.36901  -0.36064  -0.35444  -0.32402  -0.32023
 Alpha  occ. eigenvalues --   -0.30745  -0.28636  -0.25581  -0.23676
 Alpha virt. eigenvalues --    0.06092   0.09757   0.10389   0.13506   0.14779
 Alpha virt. eigenvalues --    0.14968   0.15988   0.16335   0.16598   0.17062
 Alpha virt. eigenvalues --    0.18448   0.20319   0.20913   0.21839   0.23407

 Mulliken charges:
               1
     1  O   -0.455225
     2  C    0.079783
     3  C   -0.075916
     4  C   -0.218800
     5  C   -0.142546
     6  C   -0.109082
     7  C   -0.230710
     8  C    0.377896
     9  O   -0.488609
    10  H    0.279645
    11  H    0.062580
    12  H    0.069980
    13  H    0.089950
    14  H    0.111840
    15  H    0.079962
    16  H    0.089183
    17  H    0.097246
    18  H    0.097827
    19  H    0.284997
 Sum of Mulliken charges =   0.00000

 Dipole moment (field-independent basis, Debye):
    X=             -0.3121    Y=             -0.3298    Z=              0.5501  Tot=              0.7133
 Quadrupole moment (field-independent basis, Debye-Ang):
   XX=            -48.0780   YY=            -57.1555   ZZ=            -51.6654
   XY=             -1.2306   XZ=             -2.6468   YZ=             -2.5740

  Exact polarizability:  78.156  -0.737  70.533  -1.541   0.501  70.175
 Approx polarizability: 112.628  -1.623 103.206  -1.370   2.959 107.249

                      1                      2                      3
                      A                      A                      A
 Frequencies --    153.2569               205.1597               237.0692
 Red. masses --      1.5126                 3.1755                 3.0494
 Frc consts  --      0.0209                 0.0787                 0.1010
 IR Inten    --    143.8087                 9.5626                33.8725

                      4                      5                      6
                      A                      A                      A
 Frequencies --    298.1026               363.7259               383.3585
 Red. masses --      2.9491                 1.1739                 2.5125
 Frc consts  --      0.1544                 0.0915                 0.2176
 IR Inten    --     14.7736                 4.9648                 3.4568

                      7                      8                      9
                      A                      A                      A
 Frequencies --    420.8967               469.4933               541.6086
 Red. masses --      1.9851                 2.5586                 4.3073
 Frc consts  --      0.2072                 0.3323                 0.7444
 IR Inten    --      1.9682                 3.1357                 0.9564

                     10                     11                     12
                      A                      A                      A
 Frequencies --    609.9534               660.5026               756.9142
 Red. masses --      4.5391                 4.5306                 4.3295
 Frc consts  --      0.9950                 1.1646                 1.4614
 IR Inten    --     16.2939                 0.9268                 1.0395

                     13                     14                     15
                      A                      A                      A
 Frequencies --    798.7324               853.2177               901.3940
 Red. masses --      4.1656                 1.4315                 2.6874
 Frc consts  --      1.5658                 0.6140                 1.2865
 IR Inten    --      1.7279                 8.5762                 0.4646

                     16                     17                     18
                      A                      A                      A
 Frequencies --    903.1510               915.1012               926.5165
 Red. masses --      2.6508                 2.4744                 1.9502
 Frc consts  --      1.2739                 1.2208                 0.9863
 IR Inten    --      5.7799                10.8415                 0.7492

                     19                     20                     21
                      A                      A                      A
 Frequencies --    937.7192               960.3827               999.1051
 Red. masses --      1.9260                 2.0643                 1.2338
 Frc consts  --      0.9978                 1.1218                 0.7256
 IR Inten    --      6.9789                 0.7021                 3.5315

                     22                     23                     24
                      A                      A                      A
 Frequencies --   1005.5314              1051.1709              1067.5323
 Red. masses --      1.6246                 1.7480                 1.5042
 Frc consts  --      0.9678                 1.1380                 1.0100
 IR Inten    --      0.1862                23.2444                10.2036

                     25                     26                     27
                      A                      A                      A
 Frequencies --   1105.9891              1138.4232              1154.0225
 Red. masses --      3.1462                 1.8014                 1.3051
 Frc consts  --      2.2675                 1.3755                 1.0240
 IR Inten    --     46.7323                47.4451                 0.4096

                     28                     29                     30
                      A                      A                      A
 Frequencies --   1181.8176              1186.2496              1224.6900
 Red. masses --      1.4572                 1.4390                 1.7018
 Frc consts  --      1.1992                 1.1931                 1.5039
 IR Inten    --      6.3608                13.3523                31.5477

                     31                     32                     33
                      A                      A                      A
 Frequencies --   1247.7784              1278.8986              1285.6329
 Red. masses --      1.9821                 1.4061                 1.8369
 Frc consts  --      1.8183                 1.3550                 1.7888
 IR Inten    --     28.8301                 1.9217                43.8479

                     34                     35                     36
                      A                      A                      A
 Frequencies --   1306.1937              1321.7100              1337.9642
 Red. masses --      1.6443                 1.7238                 1.7798
 Frc consts  --      1.6529                 1.7742                 1.8772
 IR Inten    --     11.3151                 6.4945                46.1064

                     37                     38                     39
                      A                      A                      A
 Frequencies --   1348.9353              1419.0352              1446.6923
 Red. masses --      1.5424                 1.4623                 3.2928
 Frc consts  --      1.6536                 1.7349                 4.0603
 IR Inten    --     10.2388                11.6861                26.4767

                     40                     41                     42
                      A                      A                      A
 Frequencies --   1486.2812              1506.2994              2990.5313
 Red. masses --      1.1038                 1.1117                 1.0838
 Frc consts  --      1.4367                 1.4862                 5.7106
 IR Inten    --      2.5703                 2.9365                51.1021

                     43                     44                     45
                      A                      A                      A
 Frequencies --   3042.6571              3050.6835              3085.2717
 Red. masses --      1.0583                 1.0624                 1.1063
 Frc consts  --      5.7724                 5.8254                 6.2047
 IR Inten    --     43.7343                38.3211                29.3676

                     46                     47                     48
                      A                      A                      A
 Frequencies --   3109.9031              3128.8822              3194.2374
 Red. masses --      1.1019                 1.0894                 1.0911
 Frc consts  --      6.2791                 6.2838                 6.5589
 IR Inten    --     17.3886                31.3869                 8.3858

                     49                     50                     51
                      A                      A                      A
 Frequencies --   3208.1973              3804.9598              3811.9574
 Red. masses --      1.0938                 1.0664                 1.0661
 Frc consts  --      6.6327                 9.0962                 9.1270
 IR Inten    --     12.4745                21.2746                21.3237

 - Thermochemistry -
 -------------------
 Temperature   298.150 Kelvin.  Pressure   1.00000 Atm.
 Atom     1 has atomic number  8 and mass  15.99491

 Molecular mass:   126.06808 amu.
 Principal axes and moments of inertia in atomic units:
                           1         2         3
     Eigenvalues --   780.26417 887.370171180.05321
           X            0.99962  -0.02274  -0.01536
           Y            0.02258   0.99969  -0.01084
           Z            0.01560   0.01049   0.99982
 This molecule is an asymmetric top.
 Rotational symmetry number  1.
 Warning -- assumption of classical behavior for rotation
           may cause significant error
 Rotational temperatures (Kelvin)      0.11101     0.09761     0.07340
 Rotational constants (GHZ):           2.31299     2.03381     1.52937
 Zero-point vibrational energy     423618.5 (Joules/Mol)
                                  101.24726 (Kcal/Mol)
 Warning -- explicit consideration of  10 degrees of freedom as
           vibrations may cause significant error
 Vibrational temperatures:    220.50   295.18   341.09   428.90   523.32
          (Kelvin)            551.57   605.58   675.50   779.25   877.59
                              950.31  1089.03  1149.20  1227.59  1296.90
                             1299.43  1316.62  1333.05  1349.17  1381.77
                             1437.49  1446.73  1512.40  1535.94  1591.27
                             1637.94  1660.38  1700.37  1706.75  1762.05
                             1795.27  1840.05  1849.74  1879.32  1901.64
                             1925.03  1940.81  2041.67  2081.46  2138.42
                             2167.23  4302.70  4377.70  4389.25  4439.01
                             4474.45  4501.76  4595.79  4615.87  5474.48
                             5484.55

 Zero-point correction=                           0.161348 (Hartree/Particle)
 Thermal correction to Energy=                    0.168868
 Thermal correction to Enthalpy=                  0.169812
 Thermal correction to Gibbs Free Energy=         0.129931
 Sum of electronic and zero-point Energies=           -423.028609
 Sum of electronic and thermal Energies=              -423.021089
 Sum of electronic and thermal Enthalpies=            -423.020145
 Sum of electronic and thermal Free Energies=         -423.060026

                     E (Thermal)             CV                S
                      KCal/Mol        Cal/Mol-Kelvin    Cal/Mol-Kelvin
 Total                  105.966             30.916             83.936
 Electronic               0.000              0.000              0.000
 Translational            0.889              2.981             40.409
 Rotational               0.889              2.981             28.193
 Vibrational            104.189             24.954             15.334
 Vibration     1          0.619              1.899              2.631
 Vibration     2          0.640              1.833              2.086
 Vibration     3          0.656              1.784              1.825
 Vibration     4          0.691              1.677              1.428
 Vibration     5          0.737              1.547              1.106
 Vibration     6          0.753              1.506              1.026
 Vibration     7          0.783              1.425              0.889
 Vibration     8          0.827              1.318              0.739
 Vibration     9          0.897              1.158              0.562
 Vibration    10          0.969              1.011              0.433

 Optimization completed.
    -- Stationary point found.
 Normal termination of Gaussian 09 at Tue Jan 28 00:32:40 2020.
