 Gaussian 09, Revision D.01,
 Gaussian 09:  ES64L-G09RevD.01 24-Apr-2013

 -----------------------------
 # b3lyp 6-31G(2df,p) opt Freq
 -----------------------------

 -----
 titel
 -----
 Symbolic Z-matrix:
 Charge =  0 Multiplicity = 1

 SCF Done:  E(RB3LYP) =  -423.169112500     A.U. after   14 cycles
 Optimization completed.
    -- Stationary point found.
 Normal termination of Gaussian 09 at Tue Jan 28 01:53:17 2020.

 ----------------------------------------------------------------------
 #N Geom=AllCheck Guess=TCheck SCRF=Check GenChk RB3LYP/6-31G(2df,p) Fr
 eq
 ----------------------------------------------------------------------

 Structure from the checkpoint file:  "/scratch/puck/g09_3995f457-7935-4c14-a43f-cf9f717e8005/Gau-190663.chk"
 -----
 titel
 -----
 Charge =  0 Multiplicity = 1

                         Standard orientation:
 ---------------------------------------------------------------------
 Center     Atomic      Atomic             Coordinates (Angstroms)
 Number     Number       Type             X           Y           Z
 ---------------------------------------------------------------------
      1          8           0       -2.644016    0.723214   -0.663615
      2          6           0       -1.887673   -0.429803   -0.433458
      3          6           0       -1.663131   -0.902512    0.977960
      4          6           0       -0.533349   -0.240722    0.202305
      5          6           0        0.705323   -1.012677   -0.266223
      6          6           0        1.808177    0.065434   -0.477914
      7          8           0        3.061694   -0.274086    0.108668
      8          6           0        1.235901    1.284470    0.199373
      9          6           0       -0.039082    1.118017    0.547109
     10          1           0       -3.565914    0.514246   -0.479267
     11          1           0       -1.959894   -1.189243   -1.214050
     12          1           0       -2.123385   -0.321514    1.771107
     13          1           0       -1.598332   -1.969416    1.168623
     14          1           0        1.056549   -1.683964    0.524654
     15          1           0        0.517089   -1.613347   -1.161401
     16          1           0        1.956328    0.269342   -1.551575
     17          1           0        3.474593   -0.943662   -0.445534
     18          1           0        1.822697    2.185176    0.333065
     19          1           0       -0.678150    1.866120    0.999045
 ---------------------------------------------------------------------

 SCF Done:  E(RB3LYP) =  -423.169112500     A.U. after    1 cycles

 The electronic state is 1-A.
 Alpha  occ. eigenvalues --  -19.14304 -19.12789 -10.23387 -10.22858 -10.19607
 Alpha  occ. eigenvalues --  -10.18199 -10.17777 -10.17750 -10.16951  -1.02787
 Alpha  occ. eigenvalues --   -1.00953  -0.86449  -0.79504  -0.70348  -0.64992
 Alpha  occ. eigenvalues --   -0.60643  -0.56108  -0.53139  -0.50579  -0.49989
 Alpha  occ. eigenvalues --   -0.49506  -0.45197  -0.41996  -0.40894  -0.38529
 Alpha  occ. eigenvalues --   -0.37983  -0.36389  -0.34229  -0.32923  -0.31534
 Alpha  occ. eigenvalues --   -0.29849  -0.27066  -0.25448  -0.22406
 Alpha virt. eigenvalues --    0.02036   0.08014   0.08850   0.10472   0.12071
 Alpha virt. eigenvalues --    0.12198   0.13240   0.16193   0.16543   0.17696
 Alpha virt. eigenvalues --    0.18609   0.19982   0.21884   0.22779   0.23772

 Mulliken charges:
               1
     1  O   -0.419824
     2  C    0.057967
     3  C   -0.385071
     4  C    0.305848
     5  C   -0.343346
     6  C    0.071515
     7  O   -0.433970
     8  C   -0.092857
     9  C   -0.112398
    10  H    0.287777
    11  H    0.082770
    12  H    0.113556
    13  H    0.110196
    14  H    0.112178
    15  H    0.092063
    16  H    0.070504
    17  H    0.280157
    18  H    0.098664
    19  H    0.104272
 Sum of Mulliken charges =   0.00000

 Dipole moment (field-independent basis, Debye):
    X=             -1.3742    Y=             -1.6824    Z=             -0.7206  Tot=              2.2887
 Quadrupole moment (field-independent basis, Debye-Ang):
   XX=            -47.7644   YY=            -51.2278   ZZ=            -53.6579
   XY=             -0.9097   XZ=             -5.6994   YZ=              2.8018

  Exact polarizability: 101.003   2.960  73.513  -6.452   2.331  62.320
 Approx polarizability: 140.821   5.172 106.942  -9.433   2.127  96.708

                      1                      2                      3
                      A                      A                      A
 Frequencies --     46.4621               148.2966               203.0095
 Red. masses --      3.9089                 4.7506                 2.8840
 Frc consts  --      0.0050                 0.0616                 0.0700
 IR Inten    --      0.6865                 0.8907                 3.0590

                      4                      5                      6
                      A                      A                      A
 Frequencies --    246.6179               275.1546               292.8230
 Red. masses --      1.8551                 1.2948                 1.9440
 Frc consts  --      0.0665                 0.0578                 0.0982
 IR Inten    --     15.1086               103.0906                58.4555

                      7                      8                      9
                      A                      A                      A
 Frequencies --    321.6843               418.1534               439.5292
 Red. masses --      1.9484                 2.2358                 3.3898
 Frc consts  --      0.1188                 0.2303                 0.3858
 IR Inten    --     35.6138                 5.8071                 5.4191

                     10                     11                     12
                      A                      A                      A
 Frequencies --    455.4884               539.3507               617.5065
 Red. masses --      2.3128                 3.2535                 3.5010
 Frc consts  --      0.2827                 0.5576                 0.7865
 IR Inten    --      5.5838                 3.0798                 8.5609

                     13                     14                     15
                      A                      A                      A
 Frequencies --    698.8748               790.7681               802.4350
 Red. masses --      3.4247                 1.8429                 2.1541
 Frc consts  --      0.9855                 0.6790                 0.8172
 IR Inten    --      2.4368                11.3393                10.4108

                     16                     17                     18
                      A                      A                      A
 Frequencies --    827.4845               864.7979               885.0087
 Red. masses --      2.8902                 2.6128                 2.0906
 Frc consts  --      1.1660                 1.1513                 0.9648
 IR Inten    --      7.1597                 1.1183                14.2092

                     19                     20                     21
                      A                      A                      A
 Frequencies --    922.0911               970.4897               987.2755
 Red. masses --      1.5261                 1.3689                 1.9832
 Frc consts  --      0.7645                 0.7596                 1.1389
 IR Inten    --      0.6740                 2.6038                18.0736

                     22                     23                     24
                      A                      A                      A
 Frequencies --   1007.5280              1032.1438              1044.4119
 Red. masses --      2.0767                 1.5028                 1.9479
 Frc consts  --      1.2421                 0.9433                 1.2519
 IR Inten    --     29.6623                 9.3766                15.3060

                     25                     26                     27
                      A                      A                      A
 Frequencies --   1083.6564              1098.5903              1131.5864
 Red. masses --      2.1162                 2.4124                 1.3022
 Frc consts  --      1.4642                 1.7154                 0.9825
 IR Inten    --      7.2553                96.7788                15.0619

                     28                     29                     30
                      A                      A                      A
 Frequencies --   1172.6023              1202.7338              1227.1193
 Red. masses --      2.4375                 1.3929                 1.0872
 Frc consts  --      1.9746                 1.1871                 0.9646
 IR Inten    --     25.1170                 3.9684                64.3806

                     31                     32                     33
                      A                      A                      A
 Frequencies --   1252.9122              1269.8645              1297.8683
 Red. masses --      1.8119                 1.4634                 1.8051
 Frc consts  --      1.6758                 1.3904                 1.7915
 IR Inten    --     54.4136                 1.1386                15.2911

                     34                     35                     36
                      A                      A                      A
 Frequencies --   1303.2479              1343.6356              1385.3049
 Red. masses --      1.2905                 1.4171                 1.6832
 Frc consts  --      1.2914                 1.5073                 1.9032
 IR Inten    --     38.9296                20.6907                 2.1974

                     37                     38                     39
                      A                      A                      A
 Frequencies --   1418.3221              1434.7494              1481.2644
 Red. masses --      1.3920                 1.6402                 1.6286
 Frc consts  --      1.6499                 1.9893                 2.1053
 IR Inten    --     11.4026                 8.7818                11.5496

                     40                     41                     42
                      A                      A                      A
 Frequencies --   1484.6629              1680.8120              2952.0717
 Red. masses --      1.1071                 6.8809                 1.0824
 Frc consts  --      1.4378                11.4534                 5.5579
 IR Inten    --      2.8405                 7.5081                62.4284

                     43                     44                     45
                      A                      A                      A
 Frequencies --   3042.5952              3080.8174              3089.3297
 Red. masses --      1.0590                 1.0875                 1.1049
 Frc consts  --      5.7763                 6.0814                 6.2131
 IR Inten    --     22.1436                29.6338                31.5729

                     46                     47                     48
                      A                      A                      A
 Frequencies --   3119.8859              3200.6498              3211.0037
 Red. masses --      1.0542                 1.0853                 1.1169
 Frc consts  --      6.0455                 6.5504                 6.7850
 IR Inten    --     12.1648                 2.4252                 7.3972

                     49                     50                     51
                      A                      A                      A
 Frequencies --   3224.7350              3801.0848              3818.1529
 Red. masses --      1.1044                 1.0662                 1.0663
 Frc consts  --      6.7663                 9.0765                 9.1584
 IR Inten    --     13.1761                21.6939                14.8482

 - Thermochemistry -
 -------------------
 Temperature   298.150 Kelvin.  Pressure   1.00000 Atm.
 Atom     1 has atomic number  8 and mass  15.99491

 Molecular mass:   126.06808 amu.
 Principal axes and moments of inertia in atomic units:
                           1         2         3
     Eigenvalues --   465.927451751.196661927.24830
           X            0.99987   0.00531  -0.01494
           Y           -0.00474   0.99927   0.03795
           Z            0.01513  -0.03787   0.99917
 This molecule is an asymmetric top.
 Rotational symmetry number  1.
 Warning -- assumption of classical behavior for rotation
           may cause significant error
 Rotational temperatures (Kelvin)      0.18590     0.04946     0.04494
 Rotational constants (GHZ):           3.87344     1.03058     0.93643
 Zero-point vibrational energy     416579.4 (Joules/Mol)
                                   99.56488 (Kcal/Mol)
 Warning -- explicit consideration of  12 degrees of freedom as
           vibrations may cause significant error
 Vibrational temperatures:     66.85   213.37   292.08   354.83   395.89
          (Kelvin)            421.31   462.83   601.63   632.38   655.35
                              776.00   888.45  1005.52  1137.74  1154.52
                             1190.56  1244.25  1273.33  1326.68  1396.32
                             1420.47  1449.61  1485.02  1502.67  1559.14
                             1580.62  1628.10  1687.11  1730.46  1765.55
                             1802.66  1827.05  1867.34  1875.08  1933.19
                             1993.14  2040.65  2064.28  2131.21  2136.10
                             2418.31  4247.37  4377.61  4432.60  4444.85
                             4488.81  4605.02  4619.91  4639.67  5468.91
                             5493.46

 Zero-point correction=                           0.158667 (Hartree/Particle)
 Thermal correction to Energy=                    0.167388
 Thermal correction to Enthalpy=                  0.168332
 Thermal correction to Gibbs Free Energy=         0.125132
 Sum of electronic and zero-point Energies=           -423.010446
 Sum of electronic and thermal Energies=              -423.001724
 Sum of electronic and thermal Enthalpies=            -423.000780
 Sum of electronic and thermal Free Energies=         -423.043980

                     E (Thermal)             CV                S
                      KCal/Mol        Cal/Mol-Kelvin    Cal/Mol-Kelvin
 Total                  105.038             33.654             90.921
 Electronic               0.000              0.000              0.000
 Translational            0.889              2.981             40.409
 Rotational               0.889              2.981             28.843
 Vibrational            103.260             27.692             21.670
 Vibration     1          0.595              1.979              4.963
 Vibration     2          0.618              1.905              2.694
 Vibration     3          0.639              1.836              2.106
 Vibration     4          0.661              1.768              1.755
 Vibration     5          0.677              1.719              1.564
 Vibration     6          0.688              1.687              1.458
 Vibration     7          0.707              1.632              1.302
 Vibration     8          0.781              1.431              0.898
 Vibration     9          0.800              1.384              0.828
 Vibration    10          0.814              1.349              0.779
 Vibration    11          0.894              1.163              0.567
 Vibration    12          0.977              0.995              0.421

 Optimization completed.
    -- Stationary point found.
 Normal termination of Gaussian 09 at Tue Jan 28 02:40:03 2020.
