 Gaussian 09, Revision D.01,
 Gaussian 09:  ES64L-G09RevD.01 24-Apr-2013

 -----------------------------
 # b3lyp 6-31G(2df,p) opt Freq
 -----------------------------

 -----
 titel
 -----
 Symbolic Z-matrix:
 Charge =  0 Multiplicity = 1

 SCF Done:  E(RB3LYP) =  -423.231197460     A.U. after   14 cycles
 Optimization completed.
    -- Stationary point found.
 Normal termination of Gaussian 09 at Tue Jan 28 03:56:49 2020.

 ----------------------------------------------------------------------
 #N Geom=AllCheck Guess=TCheck SCRF=Check GenChk RB3LYP/6-31G(2df,p) Fr
 eq
 ----------------------------------------------------------------------

 Structure from the checkpoint file:  "/scratch/puck/g09_973c726d-06d4-41fa-a5ce-350123a4c6b6/Gau-3140.chk"
 -----
 titel
 -----
 Charge =  0 Multiplicity = 1

                         Standard orientation:
 ---------------------------------------------------------------------
 Center     Atomic      Atomic             Coordinates (Angstroms)
 Number     Number       Type             X           Y           Z
 ---------------------------------------------------------------------
      1          6           0       -2.861678   -0.595710   -0.212431
      2          6           0       -1.382359   -0.206665   -0.331660
      3          6           0       -0.512079   -1.049572    0.607457
      4          8           0        0.800585   -1.288232    0.096624
      5          6           0        1.713307   -0.300689   -0.064381
      6          8           0        2.831952   -0.606574   -0.395957
      7          6           0        1.367797    1.128218    0.162927
      8          6           0        0.202835    1.784687    0.134155
      9          6           0       -1.197400    1.290241   -0.059371
     10          1           0       -3.022584   -1.637467   -0.505380
     11          1           0       -3.219508   -0.476344    0.817194
     12          1           0       -3.486069    0.034753   -0.853208
     13          1           0       -1.042649   -0.430411   -1.350491
     14          1           0       -0.453326   -0.595002    1.605233
     15          1           0       -0.931178   -2.052346    0.720307
     16          1           0        2.277032    1.708092    0.286865
     17          1           0        0.264688    2.863366    0.275767
     18          1           0       -1.766918    1.565089    0.843292
     19          1           0       -1.662331    1.875655   -0.865093
 ---------------------------------------------------------------------

 SCF Done:  E(RB3LYP) =  -423.231197460     A.U. after    1 cycles

 The electronic state is 1-A.
 Alpha  occ. eigenvalues --  -19.17327 -19.10935 -10.29994 -10.24590 -10.21515
 Alpha  occ. eigenvalues --  -10.20708 -10.20641 -10.19888 -10.19202  -1.08879
 Alpha  occ. eigenvalues --   -1.00596  -0.83856  -0.79257  -0.71175  -0.70954
 Alpha  occ. eigenvalues --   -0.63814  -0.58255  -0.55593  -0.50131  -0.49484
 Alpha  occ. eigenvalues --   -0.46428  -0.45521  -0.42930  -0.42684  -0.41373
 Alpha  occ. eigenvalues --   -0.40895  -0.39004  -0.37919  -0.35259  -0.34045
 Alpha  occ. eigenvalues --   -0.32303  -0.29076  -0.27302  -0.25868
 Alpha virt. eigenvalues --   -0.03794   0.06979   0.07658   0.09819   0.11509
 Alpha virt. eigenvalues --    0.11716   0.13588   0.14285   0.15227   0.16044
 Alpha virt. eigenvalues --    0.16744   0.17782   0.18909   0.20417   0.22729

 Mulliken charges:
               1
     1  C   -0.408765
     2  C   -0.000649
     3  C   -0.082607
     4  O   -0.227703
     5  C    0.383457
     6  O   -0.335406
     7  C   -0.174916
     8  C   -0.059869
     9  C   -0.260481
    10  H    0.123668
    11  H    0.119624
    12  H    0.121312
    13  H    0.100237
    14  H    0.112366
    15  H    0.120606
    16  H    0.120949
    17  H    0.108476
    18  H    0.118099
    19  H    0.121602
 Sum of Mulliken charges =   0.00000

 Dipole moment (field-independent basis, Debye):
    X=             -4.5474    Y=              2.1336    Z=              0.9772  Tot=              5.1173
 Quadrupole moment (field-independent basis, Debye-Ang):
   XX=            -61.8069   YY=            -51.6142   ZZ=            -52.7223
   XY=              4.7291   XZ=              2.3871   YZ=             -0.6991

  Exact polarizability: 102.020  -3.687  79.418  -1.676   0.847  55.775
 Approx polarizability: 151.374 -17.863 116.861  -7.179   2.869  88.421

                      1                      2                      3
                      A                      A                      A
 Frequencies --     78.9881               110.5023               215.3854
 Red. masses --      5.5406                 2.4682                 1.7285
 Frc consts  --      0.0204                 0.0178                 0.0472
 IR Inten    --      1.3511                 0.7481                 1.3928

                      4                      5                      6
                      A                      A                      A
 Frequencies --    233.5649               310.7600               325.7552
 Red. masses --      1.4682                 2.2383                 4.8086
 Frc consts  --      0.0472                 0.1274                 0.3006
 IR Inten    --      1.0084                 0.5721                 3.3696

                      7                      8                      9
                      A                      A                      A
 Frequencies --    335.4475               377.8599               429.0354
 Red. masses --      3.7583                 2.5125                 2.9946
 Frc consts  --      0.2492                 0.2114                 0.3248
 IR Inten    --      2.6798                 0.6345                 2.7715

                     10                     11                     12
                      A                      A                      A
 Frequencies --    507.4453               603.3197               640.3062
 Red. masses --      4.8245                 4.3681                 1.7435
 Frc consts  --      0.7319                 0.9368                 0.4212
 IR Inten    --      3.5392                 3.0194                 5.4566

                     13                     14                     15
                      A                      A                      A
 Frequencies --    747.0451               818.9447               831.9957
 Red. masses --      5.6044                 3.1354                 3.1334
 Frc consts  --      1.8428                 1.2389                 1.2779
 IR Inten    --      3.7496                15.4995                28.7777

                     16                     17                     18
                      A                      A                      A
 Frequencies --    860.0798               898.7226               918.4659
 Red. masses --      2.6446                 1.7096                 1.8305
 Frc consts  --      1.1526                 0.8136                 0.9098
 IR Inten    --      2.3744                 6.1797                 4.7245

                     19                     20                     21
                      A                      A                      A
 Frequencies --    963.2695              1008.4877              1034.8186
 Red. masses --      1.7166                 1.7090                 1.2096
 Frc consts  --      0.9385                 1.0241                 0.7632
 IR Inten    --      1.4910                15.9655                 1.0802

                     22                     23                     24
                      A                      A                      A
 Frequencies --   1092.7480              1110.4231              1117.5358
 Red. masses --      5.0559                 2.8019                 1.8547
 Frc consts  --      3.5571                 2.0356                 1.3647
 IR Inten    --     47.2693                15.4270                 3.7341

                     25                     26                     27
                      A                      A                      A
 Frequencies --   1168.8790              1218.8286              1236.6328
 Red. masses --      1.8624                 1.9631                 1.2868
 Frc consts  --      1.4992                 1.7183                 1.1594
 IR Inten    --     29.6433               123.0519                 0.2915

                     28                     29                     30
                      A                      A                      A
 Frequencies --   1286.5536              1305.8500              1326.4464
 Red. masses --      1.3898                 1.2228                 1.2542
 Frc consts  --      1.3553                 1.2285                 1.3002
 IR Inten    --     47.4894                33.2430                 0.0647

                     31                     32                     33
                      A                      A                      A
 Frequencies --   1369.4036              1398.2535              1410.1413
 Red. masses --      1.4577                 1.6544                 1.2677
 Frc consts  --      1.6105                 1.9057                 1.4852
 IR Inten    --     39.3391                 0.2751                 0.7331

                     34                     35                     36
                      A                      A                      A
 Frequencies --   1423.0903              1431.0999              1461.4102
 Red. masses --      1.3537                 1.4250                 1.1122
 Frc consts  --      1.6153                 1.7195                 1.3995
 IR Inten    --     16.6192                17.1756                11.7774

                     37                     38                     39
                      A                      A                      A
 Frequencies --   1496.9869              1499.4267              1505.2267
 Red. masses --      1.0702                 1.0468                 1.0876
 Frc consts  --      1.4131                 1.3867                 1.4518
 IR Inten    --      2.9737                 7.6211                 9.7187

                     40                     41                     42
                      A                      A                      A
 Frequencies --   1707.7080              1802.8708              2984.8936
 Red. masses --      7.4471                11.7251                 1.0688
 Frc consts  --     12.7958                22.4540                 5.6103
 IR Inten    --      9.5731               361.7185                13.9170

                     43                     44                     45
                      A                      A                      A
 Frequencies --   3019.9071              3022.8292              3029.7947
 Red. masses --      1.0740                 1.0754                 1.0436
 Frc consts  --      5.7707                 5.7897                 5.6443
 IR Inten    --     20.2955                 3.9454                22.3997

                     46                     47                     48
                      A                      A                      A
 Frequencies --   3042.1275              3096.3904              3098.2084
 Red. masses --      1.0820                 1.0992                 1.0994
 Frc consts  --      5.8997                 6.2094                 6.2177
 IR Inten    --     32.4436                23.0863                23.3514

                     49                     50                     51
                      A                      A                      A
 Frequencies --   3110.7583              3130.8776              3185.0504
 Red. masses --      1.1017                 1.0862                 1.0907
 Frc consts  --      6.2814                 6.2731                 6.5189
 IR Inten    --     29.4545                14.3405                 6.0845

 - Thermochemistry -
 -------------------
 Temperature   298.150 Kelvin.  Pressure   1.00000 Atm.
 Atom     1 has atomic number  6 and mass  12.00000

 Molecular mass:   126.06808 amu.
 Principal axes and moments of inertia in atomic units:
                           1         2         3
     Eigenvalues --   597.864821429.447201900.17528
           X            0.99947   0.03179   0.00661
           Y           -0.03177   0.99949  -0.00297
           Z           -0.00670   0.00276   0.99997
 This molecule is an asymmetric top.
 Rotational symmetry number  1.
 Warning -- assumption of classical behavior for rotation
           may cause significant error
 Rotational temperatures (Kelvin)      0.14487     0.06059     0.04558
 Rotational constants (GHZ):           3.01864     1.26254     0.94978
 Zero-point vibrational energy     420729.9 (Joules/Mol)
                                  100.55687 (Kcal/Mol)
 Warning -- explicit consideration of  11 degrees of freedom as
           vibrations may cause significant error
 Vibrational temperatures:    113.65   158.99   309.89   336.05   447.11
          (Kelvin)            468.69   482.63   543.66   617.29   730.10
                              868.04   921.26  1074.83  1178.28  1197.05
                             1237.46  1293.06  1321.47  1385.93  1450.99
                             1488.87  1572.22  1597.65  1607.88  1681.75
                             1753.62  1779.24  1851.06  1878.82  1908.46
                             1970.26  2011.77  2028.88  2047.51  2059.03
                             2102.64  2153.83  2157.34  2165.68  2457.01
                             2593.93  4294.59  4344.97  4349.17  4359.19
                             4376.94  4455.01  4457.63  4475.68  4504.63
                             4582.57

 Zero-point correction=                           0.160248 (Hartree/Particle)
 Thermal correction to Energy=                    0.168651
 Thermal correction to Enthalpy=                  0.169595
 Thermal correction to Gibbs Free Energy=         0.127103
 Sum of electronic and zero-point Energies=           -423.070950
 Sum of electronic and thermal Energies=              -423.062546
 Sum of electronic and thermal Enthalpies=            -423.061602
 Sum of electronic and thermal Free Energies=         -423.104094

                     E (Thermal)             CV                S
                      KCal/Mol        Cal/Mol-Kelvin    Cal/Mol-Kelvin
 Total                  105.830             31.859             89.432
 Electronic               0.000              0.000              0.000
 Translational            0.889              2.981             40.409
 Rotational               0.889              2.981             28.875
 Vibrational            104.053             25.897             20.148
 Vibration     1          0.600              1.963              3.916
 Vibration     2          0.606              1.941              3.260
 Vibration     3          0.645              1.818              1.998
 Vibration     4          0.654              1.790              1.851
 Vibration     5          0.700              1.653              1.358
 Vibration     6          0.710              1.624              1.281
 Vibration     7          0.717              1.605              1.234
 Vibration     8          0.748              1.517              1.048
 Vibration     9          0.790              1.407              0.862
 Vibration    10          0.863              1.234              0.640
 Vibration    11          0.962              1.025              0.444

 Optimization completed.
    -- Stationary point found.
 Normal termination of Gaussian 09 at Tue Jan 28 04:41:36 2020.
