 Gaussian 09, Revision D.01,
 Gaussian 09:  ES64L-G09RevD.01 24-Apr-2013

 -----------------------------
 # b3lyp 6-31G(2df,p) opt Freq
 -----------------------------

 -----
 titel
 -----
 Symbolic Z-matrix:
 Charge =  0 Multiplicity = 1

 SCF Done:  E(RB3LYP) =  -423.136269722     A.U. after   14 cycles
 SCF Done:  E(RB3LYP) =  -423.136269971     A.U. after    6 cycles
 Optimization completed.
    -- Stationary point found.
 Normal termination of Gaussian 09 at Tue Jan 28 12:16:41 2020.

 ----------------------------------------------------------------------
 #N Geom=AllCheck Guess=TCheck SCRF=Check GenChk RB3LYP/6-31G(2df,p) Fr
 eq
 ----------------------------------------------------------------------

 Structure from the checkpoint file:  "/scratch/puck/g09_323e74b6-1703-4e0c-8bce-c8d4b78eae0c/Gau-115447.chk"
 -----
 titel
 -----
 Charge =  0 Multiplicity = 1

                         Standard orientation:
 ---------------------------------------------------------------------
 Center     Atomic      Atomic             Coordinates (Angstroms)
 Number     Number       Type             X           Y           Z
 ---------------------------------------------------------------------
      1          8           0        2.769090    0.141594    0.242096
      2          6           0        1.764740   -0.427970   -0.587192
      3          6           0        0.381476    0.062547   -0.253289
      4          6           0       -0.012149    1.543642   -0.139309
      5          6           0       -1.275791    0.952391    0.516906
      6          8           0       -1.914704    0.300898   -0.595134
      7          6           0       -0.905230   -0.692151   -0.823281
      8          6           0       -0.974792   -1.527827    0.474853
      9          6           0       -0.405417   -0.243558    1.090444
     10          1           0        2.576088   -0.118172    1.148865
     11          1           0        2.025829   -0.130250   -1.609761
     12          1           0        1.801390   -1.529314   -0.556041
     13          1           0        0.644851    2.054187    0.569117
     14          1           0       -0.158688    2.143434   -1.041446
     15          1           0       -1.993347    1.525858    1.100941
     16          1           0       -0.978889   -1.107599   -1.827448
     17          1           0       -1.963291   -1.885252    0.772596
     18          1           0       -0.244969   -2.341206    0.502700
     19          1           0        0.018911   -0.154069    2.089992
 ---------------------------------------------------------------------

 SCF Done:  E(RB3LYP) =  -423.136269971     A.U. after    1 cycles

 The electronic state is 1-A.
 Alpha  occ. eigenvalues --  -19.13772 -19.13692 -10.23750 -10.23590 -10.23131
 Alpha  occ. eigenvalues --  -10.19909 -10.19779 -10.18590 -10.17935  -1.05399
 Alpha  occ. eigenvalues --   -1.01808  -0.85248  -0.76571  -0.71663  -0.65796
 Alpha  occ. eigenvalues --   -0.61127  -0.56301  -0.54673  -0.52820  -0.48181
 Alpha  occ. eigenvalues --   -0.47003  -0.46316  -0.44862  -0.41647  -0.39256
 Alpha  occ. eigenvalues --   -0.36909  -0.35355  -0.34925  -0.34414  -0.32862
 Alpha  occ. eigenvalues --   -0.29892  -0.27883  -0.27094  -0.24225
 Alpha virt. eigenvalues --    0.06581   0.09504   0.10662   0.10943   0.12115
 Alpha virt. eigenvalues --    0.12988   0.14377   0.15758   0.16228   0.17357
 Alpha virt. eigenvalues --    0.17628   0.18413   0.19335   0.20046   0.20080

 Mulliken charges:
               1
     1  O   -0.411562
     2  C   -0.193855
     3  C    0.300646
     4  C   -0.283357
     5  C    0.072039
     6  O   -0.269623
     7  C    0.030417
     8  C   -0.247420
     9  C   -0.118027
    10  H    0.281917
    11  H    0.115769
    12  H    0.087277
    13  H    0.105461
    14  H    0.099601
    15  H    0.079662
    16  H    0.078956
    17  H    0.103391
    18  H    0.100627
    19  H    0.068083
 Sum of Mulliken charges =   0.00000

 Dipole moment (field-independent basis, Debye):
    X=              0.1951    Y=             -0.9947    Z=              1.2096  Tot=              1.5782
 Quadrupole moment (field-independent basis, Debye-Ang):
   XX=            -62.6189   YY=            -51.6502   ZZ=            -49.4413
   XY=             -1.5381   XZ=             -0.2712   YZ=              1.1360

  Exact polarizability:  76.337   1.065  76.231  -1.535   0.941  70.028
 Approx polarizability: 110.080   1.078 110.612   0.628   1.758 110.498

                      1                      2                      3
                      A                      A                      A
 Frequencies --     96.2991               165.7320               250.3696
 Red. masses --      3.4083                 4.2019                 1.7457
 Frc consts  --      0.0186                 0.0680                 0.0645
 IR Inten    --      2.9744                 1.9033                25.6278

                      4                      5                      6
                      A                      A                      A
 Frequencies --    313.4503               359.7144               434.0581
 Red. masses --      1.3008                 3.4960                 2.0635
 Frc consts  --      0.0753                 0.2665                 0.2291
 IR Inten    --     82.9211                15.3652                 1.8524

                      7                      8                      9
                      A                      A                      A
 Frequencies --    452.1400               534.7789               648.3871
 Red. masses --      2.1354                 3.4729                 4.1590
 Frc consts  --      0.2572                 0.5852                 1.0302
 IR Inten    --      0.4666                 7.0133                 5.5436

                     10                     11                     12
                      A                      A                      A
 Frequencies --    658.1027               737.6922               807.3206
 Red. masses --      3.3896                 3.4697                 2.6603
 Frc consts  --      0.8649                 1.1125                 1.0216
 IR Inten    --      2.0989                 4.5635                 1.7646

                     13                     14                     15
                      A                      A                      A
 Frequencies --    837.8485               840.1542               905.0390
 Red. masses --      2.1376                 2.7741                 2.2638
 Frc consts  --      0.8841                 1.1537                 1.0925
 IR Inten    --      3.2642                 1.5268                 5.6021

                     16                     17                     18
                      A                      A                      A
 Frequencies --    919.7578               933.8330               948.1002
 Red. masses --      2.4234                 2.0016                 2.3595
 Frc consts  --      1.2079                 1.0284                 1.2496
 IR Inten    --     27.0781                10.1543                 8.3247

                     19                     20                     21
                      A                      A                      A
 Frequencies --    968.8662               989.6472              1031.8189
 Red. masses --      2.2772                 1.8041                 1.9417
 Frc consts  --      1.2594                 1.0411                 1.2180
 IR Inten    --     19.4904                 2.3726                25.1469

                     22                     23                     24
                      A                      A                      A
 Frequencies --   1046.0997              1050.0886              1064.5371
 Red. masses --      2.0725                 2.3283                 2.5431
 Frc consts  --      1.3363                 1.5127                 1.6980
 IR Inten    --     65.2130                22.1849                25.9514

                     25                     26                     27
                      A                      A                      A
 Frequencies --   1128.1325              1137.1228              1150.1123
 Red. masses --      2.1199                 1.3910                 1.5042
 Frc consts  --      1.5896                 1.0598                 1.1723
 IR Inten    --      1.5274                 1.0123                 4.1580

                     28                     29                     30
                      A                      A                      A
 Frequencies --   1174.4197              1198.6583              1215.4266
 Red. masses --      1.6553                 1.5996                 1.4849
 Frc consts  --      1.3451                 1.3541                 1.2924
 IR Inten    --      4.6878                22.7352                 2.1303

                     31                     32                     33
                      A                      A                      A
 Frequencies --   1242.2895              1244.9108              1267.1267
 Red. masses --      1.4221                 1.6042                 1.4808
 Frc consts  --      1.2930                 1.4648                 1.4008
 IR Inten    --      6.3317                 4.4494                 4.4792

                     34                     35                     36
                      A                      A                      A
 Frequencies --   1278.9212              1310.7838              1348.6788
 Red. masses --      1.8989                 2.1686                 1.8462
 Frc consts  --      1.8299                 2.1953                 1.9786
 IR Inten    --      9.1449                 5.7876                 4.4669

                     37                     38                     39
                      A                      A                      A
 Frequencies --   1381.3809              1417.6431              1477.0266
 Red. masses --      1.2764                 1.3187                 1.1208
 Frc consts  --      1.4351                 1.5615                 1.4407
 IR Inten    --      3.5936                55.1816                 2.0080

                     40                     41                     42
                      A                      A                      A
 Frequencies --   1483.9770              1498.4452              2968.8131
 Red. masses --      1.1500                 1.0860                 1.0698
 Frc consts  --      1.4921                 1.4367                 5.5557
 IR Inten    --      2.6206                 1.7996                52.0610

                     43                     44                     45
                      A                      A                      A
 Frequencies --   3055.5781              3060.4437              3061.6909
 Red. masses --      1.0901                 1.0569                 1.0567
 Frc consts  --      5.9965                 5.8327                 5.8361
 IR Inten    --     19.3611                32.4093                33.8712

                     46                     47                     48
                      A                      A                      A
 Frequencies --   3120.7596              3121.9808              3124.9274
 Red. masses --      1.0901                 1.1090                 1.1081
 Frc consts  --      6.2554                 6.3684                 6.3757
 IR Inten    --     22.5927                25.3434                25.9523

                     49                     50                     51
                      A                      A                      A
 Frequencies --   3130.8308              3139.6546              3812.8359
 Red. masses --      1.0906                 1.0931                 1.0660
 Frc consts  --      6.2982                 6.3485                 9.1309
 IR Inten    --     45.3529                36.4145                11.4400

 - Thermochemistry -
 -------------------
 Temperature   298.150 Kelvin.  Pressure   1.00000 Atm.
 Atom     1 has atomic number  8 and mass  15.99491

 Molecular mass:   126.06808 amu.
 Principal axes and moments of inertia in atomic units:
                           1         2         3
     Eigenvalues --   562.311051221.786401387.52367
           X            0.99993  -0.00006  -0.01182
           Y            0.00021   0.99992   0.01273
           Z            0.01182  -0.01273   0.99985
 This molecule is an asymmetric top.
 Rotational symmetry number  1.
 Warning -- assumption of classical behavior for rotation
           may cause significant error
 Rotational temperatures (Kelvin)      0.15403     0.07089     0.06242
 Rotational constants (GHZ):           3.20951     1.47713     1.30069
 Zero-point vibrational energy     421961.2 (Joules/Mol)
                                  100.85115 (Kcal/Mol)
 Warning -- explicit consideration of   8 degrees of freedom as
           vibrations may cause significant error
 Vibrational temperatures:    138.55   238.45   360.23   450.98   517.55
          (Kelvin)            624.51   650.53   769.43   932.88   946.86
                             1061.37  1161.55  1205.48  1208.79  1302.15
                             1323.32  1343.58  1364.10  1393.98  1423.88
                             1484.56  1505.10  1510.84  1531.63  1623.13
                             1636.06  1654.75  1689.73  1724.60  1748.73
                             1787.38  1791.15  1823.11  1840.08  1885.92
                             1940.45  1987.50  2039.67  2125.11  2135.11
                             2155.93  4271.45  4396.29  4403.29  4405.08
                             4490.07  4491.83  4496.07  4504.56  4517.26
                             5485.81

 Zero-point correction=                           0.160717 (Hartree/Particle)
 Thermal correction to Energy=                    0.168080
 Thermal correction to Enthalpy=                  0.169024
 Thermal correction to Gibbs Free Energy=         0.128980
 Sum of electronic and zero-point Energies=           -422.975553
 Sum of electronic and thermal Energies=              -422.968190
 Sum of electronic and thermal Enthalpies=            -422.967246
 Sum of electronic and thermal Free Energies=         -423.007290

                     E (Thermal)             CV                S
                      KCal/Mol        Cal/Mol-Kelvin    Cal/Mol-Kelvin
 Total                  105.472             29.845             84.281
 Electronic               0.000              0.000              0.000
 Translational            0.889              2.981             40.409
 Rotational               0.889              2.981             28.346
 Vibrational            103.694             23.883             15.526
 Vibration     1          0.603              1.952              3.528
 Vibration     2          0.624              1.885              2.483
 Vibration     3          0.663              1.762              1.728
 Vibration     4          0.701              1.648              1.344
 Vibration     5          0.734              1.555              1.123
 Vibration     6          0.795              1.396              0.845
 Vibration     7          0.811              1.356              0.789
 Vibration     8          0.890              1.173              0.577

 Normal termination of Gaussian 09 at Tue Jan 28 13:00:22 2020.
