 Gaussian 09, Revision D.01,
 Gaussian 09:  ES64L-G09RevD.01 24-Apr-2013

 -----------------------------
 # b3lyp 6-31G(2df,p) opt Freq
 -----------------------------

 -----
 titel
 -----
 Symbolic Z-matrix:
 Charge =  0 Multiplicity = 1

 SCF Done:  E(RB3LYP) =  -423.141522092     A.U. after   15 cycles
 Optimization completed.
    -- Stationary point found.
 Normal termination of Gaussian 09 at Tue Jan 28 08:21:58 2020.

 ----------------------------------------------------------------------
 #N Geom=AllCheck Guess=TCheck SCRF=Check GenChk RB3LYP/6-31G(2df,p) Fr
 eq
 ----------------------------------------------------------------------

 Structure from the checkpoint file:  "/scratch/puck/g09_84519c56-6dfd-4f5b-9c9d-8eab4776c31e/Gau-60384.chk"
 -----
 titel
 -----
 Charge =  0 Multiplicity = 1

                         Standard orientation:
 ---------------------------------------------------------------------
 Center     Atomic      Atomic             Coordinates (Angstroms)
 Number     Number       Type             X           Y           Z
 ---------------------------------------------------------------------
      1          6           0       -2.607031   -0.884835    0.005127
      2          8           0       -1.727526    0.089176   -0.518696
      3          6           0       -0.404516    0.145654    0.011055
      4          6           0       -0.336974    0.177299    1.534985
      5          6           0        0.432061   -1.024014   -0.602229
      6          6           0        1.834312   -1.035566   -0.214764
      7          6           0        2.992602   -1.037359    0.104855
      8          6           0        0.123199    1.458734   -0.583933
      9          8           0        0.888526    2.204158   -0.036917
     10          1           0       -2.823008   -0.722600    1.068590
     11          1           0       -3.537883   -0.788492   -0.558644
     12          1           0       -2.231909   -1.909760   -0.122682
     13          1           0       -1.031934    0.924574    1.927663
     14          1           0       -0.576546   -0.795912    1.971703
     15          1           0        0.672531    0.456132    1.839870
     16          1           0       -0.037818   -1.968463   -0.302834
     17          1           0        0.339826   -0.965977   -1.693823
     18          1           0        4.016634   -1.033140    0.385740
     19          1           0       -0.279800    1.657490   -1.601246
 ---------------------------------------------------------------------

 SCF Done:  E(RB3LYP) =  -423.141522092     A.U. after    1 cycles

 The electronic state is 1-A.
 Alpha  occ. eigenvalues --  -19.15567 -19.14605 -10.27032 -10.25789 -10.23657
 Alpha  occ. eigenvalues --  -10.21951 -10.18659 -10.18191 -10.17626  -1.05751
 Alpha  occ. eigenvalues --   -1.04279  -0.81988  -0.75592  -0.70968  -0.70112
 Alpha  occ. eigenvalues --   -0.63732  -0.55863  -0.53079  -0.51273  -0.48675
 Alpha  occ. eigenvalues --   -0.47738  -0.45443  -0.44566  -0.43652  -0.41977
 Alpha  occ. eigenvalues --   -0.40467  -0.38549  -0.38157  -0.36914  -0.32794
 Alpha  occ. eigenvalues --   -0.28710  -0.27068  -0.26646  -0.24564
 Alpha virt. eigenvalues --   -0.02671   0.04396   0.05035   0.08620   0.11443
 Alpha virt. eigenvalues --    0.12304   0.12994   0.13599   0.14184   0.15185
 Alpha virt. eigenvalues --    0.15800   0.17063   0.18161   0.20282   0.21869

 Mulliken charges:
               1
     1  C   -0.250551
     2  O   -0.278850
     3  C    0.250229
     4  C   -0.440072
     5  C   -0.409822
     6  C    0.317424
     7  C   -0.441073
     8  C    0.158456
     9  O   -0.244608
    10  H    0.119524
    11  H    0.135721
    12  H    0.110108
    13  H    0.129339
    14  H    0.115073
    15  H    0.159932
    16  H    0.135991
    17  H    0.139901
    18  H    0.200984
    19  H    0.092291
 Sum of Mulliken charges =   0.00000

 Dipole moment (field-independent basis, Debye):
    X=             -1.5774    Y=             -2.3916    Z=              0.1606  Tot=              2.8694
 Quadrupole moment (field-independent basis, Debye-Ang):
   XX=            -49.0356   YY=            -57.9054   ZZ=            -52.2867
   XY=             -0.6372   XZ=             -0.2578   YZ=             -0.6502

  Exact polarizability:  99.271   2.241  68.045   5.918  -0.016  65.555
 Approx polarizability: 145.306   7.048  99.440  17.093   1.976  97.557

                      1                      2                      3
                      A                      A                      A
 Frequencies --     63.7702                67.6047                95.1101
 Red. masses --      5.2703                 2.9410                 2.0873
 Frc consts  --      0.0126                 0.0079                 0.0111
 IR Inten    --      2.0217                 1.8886                 3.1244

                      4                      5                      6
                      A                      A                      A
 Frequencies --    137.4803               194.3813               223.9896
 Red. masses --      2.7360                 1.4138                 2.1133
 Frc consts  --      0.0305                 0.0315                 0.0625
 IR Inten    --      1.2360                 2.4488                 3.0280

                      7                      8                      9
                      A                      A                      A
 Frequencies --    246.8003               281.3709               313.5641
 Red. masses --      1.3593                 2.3868                 3.0259
 Frc consts  --      0.0488                 0.1113                 0.1753
 IR Inten    --      0.7209                 3.3990                 2.6200

                     10                     11                     12
                      A                      A                      A
 Frequencies --    343.1126               351.2506               390.9589
 Red. masses --      3.6714                 2.4184                 4.0463
 Frc consts  --      0.2547                 0.1758                 0.3644
 IR Inten    --      6.8467                 3.6148                 3.4451

                     13                     14                     15
                      A                      A                      A
 Frequencies --    445.3526               526.4032               596.6913
 Red. masses --      4.4811                 4.2705                 3.5917
 Frc consts  --      0.5236                 0.6972                 0.7534
 IR Inten    --      1.1828                 4.0871                10.9618

                     16                     17                     18
                      A                      A                      A
 Frequencies --    633.2341               650.3634               766.9673
 Red. masses --      1.2182                 1.2382                 3.6095
 Frc consts  --      0.2878                 0.3086                 1.2510
 IR Inten    --     44.4951                42.5186                 8.2023

                     19                     20                     21
                      A                      A                      A
 Frequencies --    858.7898               890.1075               958.4348
 Red. masses --      2.4120                 1.9972                 1.9567
 Frc consts  --      1.0481                 0.9323                 1.0590
 IR Inten    --     25.1560                 6.0747                15.0689

                     22                     23                     24
                      A                      A                      A
 Frequencies --    981.5558              1014.7861              1092.8216
 Red. masses --      3.4328                 1.7555                 3.5512
 Frc consts  --      1.9486                 1.0651                 2.4988
 IR Inten    --      1.0993                 3.6254                22.8900

                     25                     26                     27
                      A                      A                      A
 Frequencies --   1142.1348              1166.0745              1176.2920
 Red. masses --      1.6221                 2.3876                 2.8755
 Frc consts  --      1.2467                 1.9128                 2.3442
 IR Inten    --     23.8196               114.1108                14.6167

                     28                     29                     30
                      A                      A                      A
 Frequencies --   1183.1837              1222.0561              1310.1641
 Red. masses --      1.4406                 1.4207                 1.6939
 Frc consts  --      1.1882                 1.2501                 1.7131
 IR Inten    --     34.5252                24.7618                 2.5753

                     31                     32                     33
                      A                      A                      A
 Frequencies --   1322.7088              1392.4223              1413.0919
 Red. masses --      1.7016                 1.2179                 1.2646
 Frc consts  --      1.7541                 1.3912                 1.4878
 IR Inten    --      2.7991                 2.4074                20.1283

                     34                     35                     36
                      A                      A                      A
 Frequencies --   1467.9690              1475.8820              1487.0736
 Red. masses --      1.0825                 1.0944                 1.0747
 Frc consts  --      1.3744                 1.4046                 1.4002
 IR Inten    --      3.0389                 0.8748                 8.9939

                     37                     38                     39
                      A                      A                      A
 Frequencies --   1489.5111              1501.7249              1510.5971
 Red. masses --      1.0558                 1.0626                 1.0565
 Frc consts  --      1.3802                 1.4119                 1.4204
 IR Inten    --      0.6337                 4.6904                10.4808

                     40                     41                     42
                      A                      A                      A
 Frequencies --   1847.7453              2240.7702              2899.5139
 Red. masses --     10.7894                 5.9242                 1.0846
 Frc consts  --     21.7036                17.5257                 5.3724
 IR Inten    --    122.5713                 1.1195                85.7769

                     43                     44                     45
                      A                      A                      A
 Frequencies --   3001.1897              3027.4325              3051.9045
 Red. masses --      1.0366                 1.0579                 1.0486
 Frc consts  --      5.5013                 5.7125                 5.7542
 IR Inten    --     39.3022                16.3113                 6.2989

                     46                     47                     48
                      A                      A                      A
 Frequencies --   3058.6482              3063.3691              3117.9769
 Red. masses --      1.0878                 1.1016                 1.0987
 Frc consts  --      5.9960                 6.0907                 6.2935
 IR Inten    --     57.3673                 9.2180                22.4357

                     49                     50                     51
                      A                      A                      A
 Frequencies --   3123.7974              3151.2848              3505.7763
 Red. masses --      1.1026                 1.0993                 1.1625
 Frc consts  --      6.3391                 6.4317                 8.4183
 IR Inten    --     17.4957                 5.1991                68.9718

 - Thermochemistry -
 -------------------
 Temperature   298.150 Kelvin.  Pressure   1.00000 Atm.
 Atom     1 has atomic number  6 and mass  12.00000

 Molecular mass:   126.06808 amu.
 Principal axes and moments of inertia in atomic units:
                           1         2         3
     Eigenvalues --   809.246811425.949931807.16254
           X            0.99969   0.02452  -0.00477
           Y           -0.02452   0.99970  -0.00004
           Z            0.00477   0.00016   0.99999
 This molecule is an asymmetric top.
 Rotational symmetry number  1.
 Warning -- assumption of classical behavior for rotation
           may cause significant error
 Rotational temperatures (Kelvin)      0.10703     0.06074     0.04793
 Rotational constants (GHZ):           2.23015     1.26564     0.99866
 Zero-point vibrational energy     403591.3 (Joules/Mol)
                                   96.46063 (Kcal/Mol)
 Warning -- explicit consideration of  15 degrees of freedom as
           vibrations may cause significant error
 Vibrational temperatures:     91.75    97.27   136.84   197.80   279.67
          (Kelvin)            322.27   355.09   404.83   451.15   493.66
                              505.37   562.50   640.76   757.38   858.50
                              911.08   935.73  1103.49  1235.61  1280.66
                             1378.97  1412.24  1460.05  1572.32  1643.28
                             1677.72  1692.42  1702.34  1758.26  1885.03
                             1903.08  2003.38  2033.12  2112.08  2123.46
                             2139.56  2143.07  2160.64  2173.41  2658.49
                             3223.96  4171.75  4318.04  4355.79  4391.00
                             4400.71  4407.50  4486.07  4494.44  4533.99
                             5044.02

 Zero-point correction=                           0.153720 (Hartree/Particle)
 Thermal correction to Energy=                    0.164468
 Thermal correction to Enthalpy=                  0.165413
 Thermal correction to Gibbs Free Energy=         0.117662
 Sum of electronic and zero-point Energies=           -422.987802
 Sum of electronic and thermal Energies=              -422.977054
 Sum of electronic and thermal Enthalpies=            -422.976110
 Sum of electronic and thermal Free Energies=         -423.023860

                     E (Thermal)             CV                S
                      KCal/Mol        Cal/Mol-Kelvin    Cal/Mol-Kelvin
 Total                  103.205             38.027            100.499
 Electronic               0.000              0.000              0.000
 Translational            0.889              2.981             40.409
 Rotational               0.889              2.981             29.124
 Vibrational            101.428             32.065             30.967
 Vibration     1          0.597              1.972              4.337
 Vibration     2          0.598              1.970              4.222
 Vibration     3          0.603              1.953              3.552
 Vibration     4          0.614              1.916              2.839
 Vibration     5          0.635              1.848              2.186
 Vibration     6          0.649              1.805              1.927
 Vibration     7          0.661              1.768              1.753
 Vibration     8          0.681              1.708              1.525
 Vibration     9          0.701              1.648              1.343
 Vibration    10          0.722              1.589              1.198
 Vibration    11          0.728              1.573              1.161
 Vibration    12          0.759              1.490              0.996
 Vibration    13          0.805              1.371              0.810
 Vibration    14          0.881              1.192              0.595
 Vibration    15          0.955              1.039              0.455

 Optimization completed.
    -- Stationary point found.
 Normal termination of Gaussian 09 at Tue Jan 28 10:16:40 2020.
