 Gaussian 09, Revision D.01,
 Gaussian 09:  ES64L-G09RevD.01 24-Apr-2013

 -----------------------------
 # b3lyp 6-31G(2df,p) opt Freq
 -----------------------------

 -----
 titel
 -----
 Symbolic Z-matrix:
 Charge =  0 Multiplicity = 1

 SCF Done:  E(RB3LYP) =  -423.151915818     A.U. after   12 cycles
 Optimization completed.
    -- Stationary point found.
 Normal termination of Gaussian 09 at Tue Jan 28 03:15:43 2020.

 ----------------------------------------------------------------------
 #N Geom=AllCheck Guess=TCheck SCRF=Check GenChk RB3LYP/6-31G(2df,p) Fr
 eq
 ----------------------------------------------------------------------

 Structure from the checkpoint file:  "/scratch/puck/g09_9b02cd3a-a90e-41f4-a276-28688c10e140/Gau-66896.chk"
 -----
 titel
 -----
 Charge =  0 Multiplicity = 1

                         Standard orientation:
 ---------------------------------------------------------------------
 Center     Atomic      Atomic             Coordinates (Angstroms)
 Number     Number       Type             X           Y           Z
 ---------------------------------------------------------------------
      1          8           0        1.517076   -1.673523   -0.257171
      2          6           0        1.445169   -0.265272   -0.282204
      3          6           0        1.166994    0.411940    1.112521
      4          6           0       -0.157201    1.136721    0.789095
      5          6           0        0.164690    1.765884   -0.603934
      6          6           0        0.227039    0.277897   -1.066321
      7          6           0       -0.876620    0.056175   -0.024192
      8          6           0       -2.276109   -0.314423   -0.161485
      9          8           0       -1.320449   -1.202785    0.464667
     10          1           0        0.653566   -2.004011    0.022230
     11          1           0        2.390420    0.070775   -0.716765
     12          1           0        1.057654   -0.350800    1.887637
     13          1           0        1.956157    1.105291    1.415886
     14          1           0       -0.651419    1.694879    1.583360
     15          1           0       -0.674942    2.312387   -1.038018
     16          1           0        1.084104    2.351025   -0.682979
     17          1           0        0.129426   -0.028033   -2.106840
     18          1           0       -3.020925    0.098232    0.517015
     19          1           0       -2.660827   -0.652809   -1.122362
 ---------------------------------------------------------------------

 SCF Done:  E(RB3LYP) =  -423.151915818     A.U. after    1 cycles

 The electronic state is 1-A.
 Alpha  occ. eigenvalues --  -19.15968 -19.12260 -10.24699 -10.24254 -10.22954
 Alpha  occ. eigenvalues --  -10.19872 -10.19484 -10.19303 -10.17975  -1.07816
 Alpha  occ. eigenvalues --   -1.00874  -0.88732  -0.71876  -0.69064  -0.67201
 Alpha  occ. eigenvalues --   -0.63970  -0.57590  -0.54381  -0.51784  -0.48976
 Alpha  occ. eigenvalues --   -0.48492  -0.45962  -0.43170  -0.41888  -0.39705
 Alpha  occ. eigenvalues --   -0.37015  -0.36226  -0.34027  -0.33608  -0.32617
 Alpha  occ. eigenvalues --   -0.31452  -0.30556  -0.26839  -0.24936
 Alpha virt. eigenvalues --    0.08117   0.09469   0.10274   0.10605   0.13166
 Alpha virt. eigenvalues --    0.13638   0.13905   0.15218   0.16134   0.16487
 Alpha virt. eigenvalues --    0.17588   0.18146   0.20500   0.20997   0.21941

 Mulliken charges:
               1
     1  O   -0.454575
     2  C    0.163515
     3  C   -0.256128
     4  C   -0.129016
     5  C   -0.242286
     6  C   -0.162451
     7  C    0.522080
     8  C   -0.310733
     9  O   -0.314500
    10  H    0.294923
    11  H    0.082425
    12  H    0.112067
    13  H    0.098608
    14  H    0.070610
    15  H    0.104599
    16  H    0.100949
    17  H    0.072930
    18  H    0.123135
    19  H    0.123848
 Sum of Mulliken charges =   0.00000

 Dipole moment (field-independent basis, Debye):
    X=             -1.6210    Y=              2.4222    Z=             -0.3968  Tot=              2.9415
 Quadrupole moment (field-independent basis, Debye-Ang):
   XX=            -52.1209   YY=            -56.1030   ZZ=            -52.4077
   XY=              2.4874   XZ=              1.6564   YZ=              0.3526

  Exact polarizability:  83.606   2.454  71.874   1.424   0.732  67.690
 Approx polarizability: 115.817   2.552 110.073   0.574  -1.607 101.710

                      1                      2                      3
                      A                      A                      A
 Frequencies --    147.5383               188.1502               261.7811
 Red. masses --      5.6210                 3.1990                 3.0979
 Frc consts  --      0.0721                 0.0667                 0.1251
 IR Inten    --      2.4686                 2.9935                 1.8131

                      4                      5                      6
                      A                      A                      A
 Frequencies --    339.0029               384.6282               412.6034
 Red. masses --      2.8585                 2.8607                 2.1890
 Frc consts  --      0.1935                 0.2493                 0.2196
 IR Inten    --      1.7666                 1.1464                 1.9687

                      7                      8                      9
                      A                      A                      A
 Frequencies --    460.9208               474.7692               553.3518
 Red. masses --      1.2850                 2.9129                 3.2671
 Frc consts  --      0.1608                 0.3868                 0.5894
 IR Inten    --     83.3836                 4.0346                 3.2709

                     10                     11                     12
                      A                      A                      A
 Frequencies --    615.7251               713.1584               817.3645
 Red. masses --      4.9107                 3.4142                 2.4002
 Frc consts  --      1.0969                 1.0231                 0.9448
 IR Inten    --     16.4705                 4.5142                 1.4583

                     13                     14                     15
                      A                      A                      A
 Frequencies --    826.3228               838.3793               868.7263
 Red. masses --      2.5422                 2.5007                 3.8640
 Frc consts  --      1.0227                 1.0356                 1.7181
 IR Inten    --      1.7362                 1.4698                18.7674

                     16                     17                     18
                      A                      A                      A
 Frequencies --    886.0739               932.7698               955.0761
 Red. masses --      2.2463                 1.5077                 2.3404
 Frc consts  --      1.0391                 0.7729                 1.2578
 IR Inten    --     11.0152                 4.0566                 7.2025

                     19                     20                     21
                      A                      A                      A
 Frequencies --    961.7755               989.1946              1024.3888
 Red. masses --      2.2055                 2.4965                 2.9358
 Frc consts  --      1.2020                 1.4393                 1.8151
 IR Inten    --     22.0846                16.1990                29.5637

                     22                     23                     24
                      A                      A                      A
 Frequencies --   1045.3404              1072.2861              1083.4600
 Red. masses --      1.6051                 1.4873                 1.3699
 Frc consts  --      1.0334                 1.0075                 0.9475
 IR Inten    --      7.7713                 0.8248                 4.1236

                     25                     26                     27
                      A                      A                      A
 Frequencies --   1114.2223              1134.9242              1156.9921
 Red. masses --      1.2668                 2.0500                 1.4351
 Frc consts  --      0.9266                 1.5558                 1.1319
 IR Inten    --      2.1004                67.2149                33.4417

                     28                     29                     30
                      A                      A                      A
 Frequencies --   1168.7325              1179.1725              1206.1547
 Red. masses --      1.4150                 1.6070                 1.7958
 Frc consts  --      1.1388                 1.3165                 1.5392
 IR Inten    --      0.8114                 4.0337                 3.6747

                     31                     32                     33
                      A                      A                      A
 Frequencies --   1227.8492              1251.4885              1261.4798
 Red. masses --      1.6675                 1.6180                 1.6251
 Frc consts  --      1.4812                 1.4931                 1.5236
 IR Inten    --      0.2634                 2.1339                 6.9086

                     34                     35                     36
                      A                      A                      A
 Frequencies --   1308.4849              1314.3380              1335.9791
 Red. masses --      1.5035                 1.5750                 1.4022
 Frc consts  --      1.5166                 1.6030                 1.4745
 IR Inten    --      8.1972                 0.6813                 2.9833

                     37                     38                     39
                      A                      A                      A
 Frequencies --   1452.3903              1459.6055              1485.2335
 Red. masses --      1.7451                 1.2255                 1.0933
 Frc consts  --      2.1688                 1.5382                 1.4209
 IR Inten    --     17.0317                82.7974                 2.7996

                     40                     41                     42
                      A                      A                      A
 Frequencies --   1504.6568              1547.5696              3059.1300
 Red. masses --      1.1081                 1.9725                 1.0617
 Frc consts  --      1.4781                 2.7833                 5.8541
 IR Inten    --      5.7792                14.3064                22.4225

                     43                     44                     45
                      A                      A                      A
 Frequencies --   3065.5806              3074.7180              3086.5624
 Red. masses --      1.0571                 1.0842                 1.0511
 Frc consts  --      5.8533                 6.0393                 5.9001
 IR Inten    --     26.7720                41.6524                25.8743

                     46                     47                     48
                      A                      A                      A
 Frequencies --   3112.6394              3123.2732              3127.5514
 Red. masses --      1.1061                 1.0919                 1.1072
 Frc consts  --      6.3142                 6.2757                 6.3808
 IR Inten    --     22.0322                36.6678                31.4563

                     49                     50                     51
                      A                      A                      A
 Frequencies --   3132.9538              3173.5846              3769.8134
 Red. masses --      1.0921                 1.1192                 1.0658
 Frc consts  --      6.3154                 6.6414                 8.9238
 IR Inten    --     20.7207                17.7777                44.9613

 - Thermochemistry -
 -------------------
 Temperature   298.150 Kelvin.  Pressure   1.00000 Atm.
 Atom     1 has atomic number  8 and mass  15.99491

 Molecular mass:   126.06808 amu.
 Principal axes and moments of inertia in atomic units:
                           1         2         3
     Eigenvalues --   741.57620 966.850981263.54990
           X            0.99929   0.03088   0.02140
           Y           -0.03098   0.99951   0.00430
           Z           -0.02126  -0.00496   0.99976
 This molecule is an asymmetric top.
 Rotational symmetry number  1.
 Warning -- assumption of classical behavior for rotation
           may cause significant error
 Rotational temperatures (Kelvin)      0.11680     0.08958     0.06855
 Rotational constants (GHZ):           2.43366     1.86662     1.42831
 Zero-point vibrational energy     422807.3 (Joules/Mol)
                                  101.05338 (Kcal/Mol)
 Warning -- explicit consideration of  10 degrees of freedom as
           vibrations may cause significant error
 Vibrational temperatures:    212.27   270.71   376.64   487.75   553.39
          (Kelvin)            593.64   663.16   683.09   796.15   885.89
                             1026.07  1176.00  1188.89  1206.24  1249.90
                             1274.86  1342.05  1374.14  1383.78  1423.23
                             1473.87  1504.01  1542.78  1558.86  1603.12
                             1632.90  1664.65  1681.54  1696.56  1735.39
                             1766.60  1800.61  1814.99  1882.62  1891.04
                             1922.17  2089.66  2100.04  2136.92  2164.86
                             2226.60  4401.40  4410.68  4423.83  4440.87
                             4478.39  4493.69  4499.84  4507.62  4566.07
                             5423.91

 Zero-point correction=                           0.161039 (Hartree/Particle)
 Thermal correction to Energy=                    0.168348
 Thermal correction to Enthalpy=                  0.169292
 Thermal correction to Gibbs Free Energy=         0.129696
 Sum of electronic and zero-point Energies=           -422.990877
 Sum of electronic and thermal Energies=              -422.983568
 Sum of electronic and thermal Enthalpies=            -422.982624
 Sum of electronic and thermal Free Energies=         -423.022220

                     E (Thermal)             CV                S
                      KCal/Mol        Cal/Mol-Kelvin    Cal/Mol-Kelvin
 Total                  105.640             30.185             83.338
 Electronic               0.000              0.000              0.000
 Translational            0.889              2.981             40.409
 Rotational               0.889              2.981             28.295
 Vibrational            103.862             24.223             14.634
 Vibration     1          0.617              1.905              2.704
 Vibration     2          0.633              1.856              2.246
 Vibration     3          0.669              1.743              1.650
 Vibration     4          0.719              1.598              1.217
 Vibration     5          0.754              1.503              1.021
 Vibration     6          0.776              1.443              0.917
 Vibration     7          0.819              1.337              0.763
 Vibration     8          0.831              1.306              0.724
 Vibration     9          0.909              1.132              0.537
 Vibration    10          0.975              0.999              0.423

 Optimization completed.
    -- Stationary point found.
 Normal termination of Gaussian 09 at Tue Jan 28 04:15:28 2020.
