 Gaussian 09, Revision D.01,
 Gaussian 09:  ES64L-G09RevD.01 24-Apr-2013

 -----------------------------
 # b3lyp 6-31G(2df,p) opt Freq
 -----------------------------

 -----
 titel
 -----
 Symbolic Z-matrix:
 Charge =  0 Multiplicity = 1

 SCF Done:  E(RB3LYP) =  -423.201697338     A.U. after   14 cycles
 Optimization completed.
    -- Stationary point found.
 Normal termination of Gaussian 09 at Mon Jan 27 16:46:54 2020.

 ----------------------------------------------------------------------
 #N Geom=AllCheck Guess=TCheck SCRF=Check GenChk RB3LYP/6-31G(2df,p) Fr
 eq
 ----------------------------------------------------------------------

 Structure from the checkpoint file:  "/scratch/puck/g09_02ab4a25-80fc-4e90-b7af-37ed86ced715/Gau-31253.chk"
 -----
 titel
 -----
 Charge =  0 Multiplicity = 1

                         Standard orientation:
 ---------------------------------------------------------------------
 Center     Atomic      Atomic             Coordinates (Angstroms)
 Number     Number       Type             X           Y           Z
 ---------------------------------------------------------------------
      1          6           0       -0.602614    1.776743   -0.923852
      2          6           0       -0.263004    0.631076    0.033062
      3          6           0       -1.228652    0.455946    1.233258
      4          8           0       -1.713301   -0.810419    0.675421
      5          6           0       -0.870803   -0.715482   -0.398591
      6          8           0       -0.748431   -1.485586   -1.298619
      7          6           0        1.216219    0.591358    0.360390
      8          6           0        2.190434   -0.134494   -0.533895
      9          6           0        1.900961   -0.660778    0.850469
     10          1           0       -1.673394    1.814176   -1.146565
     11          1           0       -0.310271    2.737665   -0.487252
     12          1           0       -0.061866    1.652780   -1.865906
     13          1           0       -0.757784    0.289724    2.203797
     14          1           0       -2.045143    1.177008    1.311846
     15          1           0        1.572966    1.524155    0.792011
     16          1           0        1.780106   -0.692641   -1.367771
     17          1           0        3.152531    0.327921   -0.722882
     18          1           0        1.320430   -1.574118    0.926917
     19          1           0        2.661028   -0.554846    1.616349
 ---------------------------------------------------------------------

 SCF Done:  E(RB3LYP) =  -423.201697338     A.U. after    1 cycles

 The electronic state is 1-A.
 Alpha  occ. eigenvalues --  -19.18116 -19.13533 -10.30483 -10.24945 -10.22040
 Alpha  occ. eigenvalues --  -10.20513 -10.19394 -10.19182 -10.18936  -1.10565
 Alpha  occ. eigenvalues --   -1.03198  -0.87086  -0.79545  -0.69741  -0.66201
 Alpha  occ. eigenvalues --   -0.61240  -0.60431  -0.52722  -0.50952  -0.49666
 Alpha  occ. eigenvalues --   -0.48603  -0.47069  -0.42864  -0.42515  -0.41203
 Alpha  occ. eigenvalues --   -0.40107  -0.37513  -0.37197  -0.36618  -0.34593
 Alpha  occ. eigenvalues --   -0.30222  -0.29881  -0.28970  -0.26896
 Alpha virt. eigenvalues --    0.01076   0.07907   0.09422   0.09873   0.11700
 Alpha virt. eigenvalues --    0.11833   0.12619   0.14094   0.14860   0.15164
 Alpha virt. eigenvalues --    0.17465   0.18006   0.19052   0.19852   0.22658

 Mulliken charges:
               1
     1  C   -0.451305
     2  C    0.087068
     3  C   -0.115721
     4  O   -0.247957
     5  C    0.445051
     6  O   -0.340469
     7  C   -0.042541
     8  C   -0.271162
     9  C   -0.293082
    10  H    0.126238
    11  H    0.122173
    12  H    0.143627
    13  H    0.125767
    14  H    0.120468
    15  H    0.087595
    16  H    0.145923
    17  H    0.112488
    18  H    0.132537
    19  H    0.113303
 Sum of Mulliken charges =   0.00000

 Dipole moment (field-independent basis, Debye):
    X=              1.1331    Y=              3.2590    Z=              1.7590  Tot=              3.8729
 Quadrupole moment (field-independent basis, Debye-Ang):
   XX=            -53.1068   YY=            -55.6422   ZZ=            -53.7930
   XY=             -3.3874   XZ=             -0.3930   YZ=             -1.8413

  Exact polarizability:  76.874  -2.609  72.052  -2.453   2.199  73.484
 Approx polarizability: 104.200  -1.597 108.884  -6.843   9.657 115.684

                      1                      2                      3
                      A                      A                      A
 Frequencies --     73.6554               122.2942               143.5001
 Red. masses --      3.1115                 4.3751                 5.3452
 Frc consts  --      0.0099                 0.0386                 0.0649
 IR Inten    --      0.1245                 0.2779                 4.2809

                      4                      5                      6
                      A                      A                      A
 Frequencies --    213.3608               218.4935               244.6194
 Red. masses --      2.3506                 1.5374                 1.6640
 Frc consts  --      0.0630                 0.0432                 0.0587
 IR Inten    --      0.2039                 1.5796                 1.0934

                      7                      8                      9
                      A                      A                      A
 Frequencies --    328.3242               379.9086               446.9099
 Red. masses --      2.5048                 3.1974                 2.6492
 Frc consts  --      0.1591                 0.2719                 0.3118
 IR Inten    --      0.4776                 1.3276                 1.1301

                     10                     11                     12
                      A                      A                      A
 Frequencies --    532.5603               661.4804               742.1544
 Red. masses --      3.8028                 3.5056                 4.7688
 Frc consts  --      0.6355                 0.9037                 1.5476
 IR Inten    --      0.5768                 2.4209                 3.8404

                     13                     14                     15
                      A                      A                      A
 Frequencies --    775.8012               792.4846               834.5471
 Red. masses --      6.0298                 1.1429                 1.2628
 Frc consts  --      2.1382                 0.4229                 0.5182
 IR Inten    --      2.3369                 1.6199                 6.5424

                     16                     17                     18
                      A                      A                      A
 Frequencies --    862.0133               890.8588               933.1122
 Red. masses --      2.1598                 2.9575                 2.5152
 Frc consts  --      0.9456                 1.3829                 1.2903
 IR Inten    --      2.3298                 3.5194                 1.4300

                     19                     20                     21
                      A                      A                      A
 Frequencies --    958.8224               965.0194               989.1507
 Red. masses --      3.1942                 3.2166                 1.8844
 Frc consts  --      1.7302                 1.7649                 1.0863
 IR Inten    --     47.9004                39.2698                 1.0746

                     22                     23                     24
                      A                      A                      A
 Frequencies --   1060.6885              1077.7695              1092.3231
 Red. masses --      1.3433                 1.3727                 1.3946
 Frc consts  --      0.8904                 0.9395                 0.9804
 IR Inten    --      4.4793                 8.7390                 3.3817

                     25                     26                     27
                      A                      A                      A
 Frequencies --   1116.6577              1140.9698              1157.6411
 Red. masses --      2.9977                 1.1145                 1.2473
 Frc consts  --      2.2023                 0.8548                 0.9849
 IR Inten    --    104.5427                 2.9241                 0.5690

                     28                     29                     30
                      A                      A                      A
 Frequencies --   1182.9925              1198.1944              1208.1613
 Red. masses --      2.4112                 1.6002                 2.4389
 Frc consts  --      1.9881                 1.3535                 2.0975
 IR Inten    --     32.0401                 0.9312                 1.3509

                     31                     32                     33
                      A                      A                      A
 Frequencies --   1229.9458              1277.3575              1352.9126
 Red. masses --      2.2283                 1.9465                 1.9730
 Frc consts  --      1.9861                 1.8712                 2.1278
 IR Inten    --      0.9244                 9.1632                14.0679

                     34                     35                     36
                      A                      A                      A
 Frequencies --   1392.8178              1414.5096              1469.7399
 Red. masses --      1.6362                 1.2593                 1.0903
 Frc consts  --      1.8701                 1.4846                 1.3876
 IR Inten    --      0.7062                 6.3875                 2.5290

                     37                     38                     39
                      A                      A                      A
 Frequencies --   1492.0540              1494.4363              1504.8000
 Red. masses --      1.0514                 1.0618                 1.3204
 Frc consts  --      1.3791                 1.3972                 1.7616
 IR Inten    --      3.1953                 3.3858                 4.0562

                     40                     41                     42
                      A                      A                      A
 Frequencies --   1514.5945              1920.0343              3035.9757
 Red. masses --      1.1160                12.5440                 1.0354
 Frc consts  --      1.5083                27.2461                 5.6226
 IR Inten    --      3.7063               328.4604                17.2642

                     43                     44                     45
                      A                      A                      A
 Frequencies --   3070.3488              3104.5483              3121.2835
 Red. masses --      1.0557                 1.1018                 1.1010
 Frc consts  --      5.8635                 6.2568                 6.3197
 IR Inten    --     29.8637                16.5832                10.4291

                     46                     47                     48
                      A                      A                      A
 Frequencies --   3124.7192              3134.6231              3135.3026
 Red. masses --      1.0856                 1.0929                 1.0720
 Frc consts  --      6.2454                 6.3273                 6.2090
 IR Inten    --     18.9582                 9.0820                22.7888

                     49                     50                     51
                      A                      A                      A
 Frequencies --   3141.1181              3215.3172              3232.7090
 Red. masses --      1.0585                 1.1176                 1.1163
 Frc consts  --      6.1533                 6.8074                 6.8733
 IR Inten    --      9.2272                 3.9539                 8.6557

 - Thermochemistry -
 -------------------
 Temperature   298.150 Kelvin.  Pressure   1.00000 Atm.
 Atom     1 has atomic number  6 and mass  12.00000

 Molecular mass:   126.06808 amu.
 Principal axes and moments of inertia in atomic units:
                           1         2         3
     Eigenvalues --   797.462001197.969101310.64596
           X            0.99771  -0.06726   0.00749
           Y            0.06762   0.98664  -0.14820
           Z            0.00258   0.14837   0.98893
 This molecule is an asymmetric top.
 Rotational symmetry number  1.
 Warning -- assumption of classical behavior for rotation
           may cause significant error
 Rotational temperatures (Kelvin)      0.10861     0.07230     0.06608
 Rotational constants (GHZ):           2.26311     1.50650     1.37699
 Zero-point vibrational energy     417039.8 (Joules/Mol)
                                   99.67491 (Kcal/Mol)
 Warning -- explicit consideration of  10 degrees of freedom as
           vibrations may cause significant error
 Vibrational temperatures:    105.97   175.95   206.46   306.98   314.36
          (Kelvin)            351.95   472.38   546.60   643.00   766.23
                              951.72  1067.79  1116.20  1140.21  1200.73
                             1240.24  1281.75  1342.54  1379.53  1388.45
                             1423.17  1526.09  1550.67  1571.61  1606.62
                             1641.60  1665.59  1702.06  1723.93  1738.27
                             1769.62  1837.83  1946.54  2003.95  2035.16
                             2114.63  2146.73  2150.16  2165.07  2179.16
                             2762.50  4368.09  4417.54  4466.75  4490.83
                             4495.77  4510.02  4511.00  4519.36  4626.12
                             4651.14

 Zero-point correction=                           0.158842 (Hartree/Particle)
 Thermal correction to Energy=                    0.167583
 Thermal correction to Enthalpy=                  0.168527
 Thermal correction to Gibbs Free Energy=         0.125285
 Sum of electronic and zero-point Energies=           -423.042855
 Sum of electronic and thermal Energies=              -423.034114
 Sum of electronic and thermal Enthalpies=            -423.033170
 Sum of electronic and thermal Free Energies=         -423.076412

                     E (Thermal)             CV                S
                      KCal/Mol        Cal/Mol-Kelvin    Cal/Mol-Kelvin
 Total                  105.160             32.559             91.010
 Electronic               0.000              0.000              0.000
 Translational            0.889              2.981             40.409
 Rotational               0.889              2.981             28.617
 Vibrational            103.382             26.597             21.984
 Vibration     1          0.599              1.966              4.053
 Vibration     2          0.610              1.931              3.064
 Vibration     3          0.616              1.910              2.757
 Vibration     4          0.644              1.821              2.015
 Vibration     5          0.646              1.813              1.972
 Vibration     6          0.660              1.772              1.769
 Vibration     7          0.712              1.619              1.268
 Vibration     8          0.750              1.513              1.040
 Vibration     9          0.806              1.368              0.805
 Vibration    10          0.888              1.178              0.582

 Normal termination of Gaussian 09 at Mon Jan 27 17:33:26 2020.
