 Gaussian 09, Revision D.01,
 Gaussian 09:  ES64L-G09RevD.01 24-Apr-2013

 -----------------------------
 # b3lyp 6-31G(2df,p) opt Freq
 -----------------------------

 -----
 titel
 -----
 Symbolic Z-matrix:
 Charge =  0 Multiplicity = 1

 SCF Done:  E(RB3LYP) =  -423.201324027     A.U. after   14 cycles
 Optimization completed.
    -- Stationary point found.
 Normal termination of Gaussian 09 at Tue Jan 28 04:05:30 2020.

 ----------------------------------------------------------------------
 #N Geom=AllCheck Guess=TCheck SCRF=Check GenChk RB3LYP/6-31G(2df,p) Fr
 eq
 ----------------------------------------------------------------------

 Structure from the checkpoint file:  "/scratch/puck/g09_5bfd8e68-1304-44c7-a107-8a17570d2c08/Gau-116498.chk"
 -----
 titel
 -----
 Charge =  0 Multiplicity = 1

                         Standard orientation:
 ---------------------------------------------------------------------
 Center     Atomic      Atomic             Coordinates (Angstroms)
 Number     Number       Type             X           Y           Z
 ---------------------------------------------------------------------
      1          8           0        2.019917   -0.816487   -1.209630
      2          6           0        1.687955    0.175376   -0.246939
      3          6           0        1.385414   -0.415169    1.149468
      4          6           0       -0.131676   -0.718638    1.153437
      5          6           0       -0.737084    0.293404    0.191378
      6          6           0       -0.308774    1.743992    0.350355
      7          6           0        0.409672    0.901296   -0.646668
      8          6           0       -2.030285    0.012982   -0.458448
      9          8           0       -2.680373   -0.991834   -0.292181
     10          1           0        1.269699   -1.416210   -1.290711
     11          1           0        2.555152    0.842794   -0.227102
     12          1           0        2.002122   -1.298317    1.329686
     13          1           0        1.634687    0.314172    1.926633
     14          1           0       -0.348565   -1.725437    0.780981
     15          1           0       -0.566512   -0.658341    2.155326
     16          1           0       -0.984574    2.498014   -0.041298
     17          1           0        0.175402    2.024596    1.279559
     18          1           0        0.272943    1.110782   -1.702149
     19          1           0       -2.378038    0.815047   -1.151931
 ---------------------------------------------------------------------

 SCF Done:  E(RB3LYP) =  -423.201324027     A.U. after    1 cycles

 The electronic state is 1-A.
 Alpha  occ. eigenvalues --  -19.14096 -19.13408 -10.26906 -10.24305 -10.21263
 Alpha  occ. eigenvalues --  -10.21071 -10.21034 -10.19344 -10.18924  -1.04169
 Alpha  occ. eigenvalues --   -1.02499  -0.90026  -0.77398  -0.72124  -0.65504
 Alpha  occ. eigenvalues --   -0.62927  -0.58649  -0.55030  -0.51509  -0.49500
 Alpha  occ. eigenvalues --   -0.48116  -0.44844  -0.43792  -0.41677  -0.40777
 Alpha  occ. eigenvalues --   -0.38986  -0.38503  -0.36783  -0.35624  -0.33602
 Alpha  occ. eigenvalues --   -0.31520  -0.28798  -0.27136  -0.25153
 Alpha virt. eigenvalues --   -0.02046   0.06828   0.08719   0.09074   0.11926
 Alpha virt. eigenvalues --    0.12006   0.12707   0.14977   0.16508   0.16845
 Alpha virt. eigenvalues --    0.17116   0.19059   0.20407   0.21821   0.22887

 Mulliken charges:
               1
     1  O   -0.432461
     2  C    0.133232
     3  C   -0.269398
     4  C   -0.296268
     5  C    0.263219
     6  C   -0.354207
     7  C   -0.099959
     8  C    0.076224
     9  O   -0.271185
    10  H    0.282871
    11  H    0.093975
    12  H    0.115208
    13  H    0.106822
    14  H    0.119825
    15  H    0.112213
    16  H    0.125253
    17  H    0.126692
    18  H    0.104195
    19  H    0.063752
 Sum of Mulliken charges =   0.00000

 Dipole moment (field-independent basis, Debye):
    X=              1.0049    Y=              2.0159    Z=              0.8383  Tot=              2.4034
 Quadrupole moment (field-independent basis, Debye-Ang):
   XX=            -64.4189   YY=            -51.8823   ZZ=            -52.3158
   XY=             -3.8203   XZ=              3.3153   YZ=             -0.4002

  Exact polarizability:  84.111   3.614  76.165   3.158  -1.962  67.978
 Approx polarizability: 120.356  14.507 121.487  -0.141  -0.947 101.557

                      1                      2                      3
                      A                      A                      A
 Frequencies --     78.4729               163.3056               197.7580
 Red. masses --      7.4800                 3.1656                 2.7613
 Frc consts  --      0.0271                 0.0497                 0.0636
 IR Inten    --      5.0575                 1.2301                 5.7136

                      4                      5                      6
                      A                      A                      A
 Frequencies --    213.1862               297.7623               351.0833
 Red. masses --      3.1779                 1.0941                 2.5030
 Frc consts  --      0.0851                 0.0572                 0.1818
 IR Inten    --      6.7146                68.4123                 3.1670

                      7                      8                      9
                      A                      A                      A
 Frequencies --    365.2755               414.2091               455.6595
 Red. masses --      2.2657                 2.7722                 2.9395
 Frc consts  --      0.1781                 0.2802                 0.3596
 IR Inten    --     11.9905                12.6376                 0.7078

                     10                     11                     12
                      A                      A                      A
 Frequencies --    480.7434               635.3628               717.3942
 Red. masses --      4.0336                 3.7118                 3.0256
 Frc consts  --      0.5492                 0.8828                 0.9174
 IR Inten    --      3.5011                15.0410                 7.6471

                     13                     14                     15
                      A                      A                      A
 Frequencies --    746.6969               794.4421               822.1805
 Red. masses --      2.9000                 3.8005                 1.6402
 Frc consts  --      0.9527                 1.4133                 0.6533
 IR Inten    --      8.2188                 3.6894                 5.9003

                     16                     17                     18
                      A                      A                      A
 Frequencies --    832.8674               917.4913               941.4222
 Red. masses --      2.9377                 1.6037                 1.4404
 Frc consts  --      1.2006                 0.7954                 0.7521
 IR Inten    --      5.2577                 5.6260                24.2813

                     19                     20                     21
                      A                      A                      A
 Frequencies --    981.3868              1006.6178              1033.1521
 Red. masses --      2.0178                 2.0615                 2.5854
 Frc consts  --      1.1450                 1.2307                 1.6259
 IR Inten    --     14.5493                14.2580                20.5322

                     22                     23                     24
                      A                      A                      A
 Frequencies --   1036.6577              1067.3942              1080.6043
 Red. masses --      2.0892                 1.3196                 1.3434
 Frc consts  --      1.3228                 0.8858                 0.9242
 IR Inten    --     22.6214                12.2132                13.8584

                     25                     26                     27
                      A                      A                      A
 Frequencies --   1090.2736              1108.6942              1168.2406
 Red. masses --      1.9855                 1.6863                 1.2598
 Frc consts  --      1.3906                 1.2212                 1.0130
 IR Inten    --     14.3911                37.7969                30.6021

                     28                     29                     30
                      A                      A                      A
 Frequencies --   1206.1599              1251.6231              1278.0327
 Red. masses --      1.5149                 1.5957                 1.5302
 Frc consts  --      1.2985                 1.4728                 1.4726
 IR Inten    --      3.9006                12.2627                18.0331

                     31                     32                     33
                      A                      A                      A
 Frequencies --   1282.6445              1309.4376              1331.4848
 Red. masses --      1.5779                 1.7114                 1.9394
 Frc consts  --      1.5294                 1.7289                 2.0258
 IR Inten    --      7.7825                 1.2715                 4.3769

                     34                     35                     36
                      A                      A                      A
 Frequencies --   1342.3721              1389.2901              1429.7266
 Red. masses --      1.6907                 1.9861                 1.2377
 Frc consts  --      1.7950                 2.2585                 1.4907
 IR Inten    --      2.7728                 9.0225                60.9365

                     37                     38                     39
                      A                      A                      A
 Frequencies --   1437.3168              1480.4354              1495.6502
 Red. masses --      1.3490                 1.1957                 1.0966
 Frc consts  --      1.6420                 1.5441                 1.4452
 IR Inten    --      8.1699                 4.2460                 7.1156

                     40                     41                     42
                      A                      A                      A
 Frequencies --   1509.8868              1806.2946              2850.0299
 Red. masses --      1.1185                10.5604                 1.0818
 Frc consts  --      1.5023                20.3005                 5.1771
 IR Inten    --      4.4603               248.6267               111.7813

                     43                     44                     45
                      A                      A                      A
 Frequencies --   3052.8431              3054.1486              3070.0579
 Red. masses --      1.0602                 1.0709                 1.0832
 Frc consts  --      5.8218                 5.8856                 6.0153
 IR Inten    --     15.2217                12.3172                39.8483

                     46                     47                     48
                      A                      A                      A
 Frequencies --   3090.1212              3113.7066              3129.7192
 Red. masses --      1.0998                 1.1009                 1.0548
 Frc consts  --      6.1877                 6.2888                 6.0871
 IR Inten    --     18.1822                18.5449                13.3476

                     49                     50                     51
                      A                      A                      A
 Frequencies --   3174.3216              3213.6882              3799.6472
 Red. masses --      1.0909                 1.1155                 1.0659
 Frc consts  --      6.4764                 6.7877                 9.0667
 IR Inten    --      6.9644                 5.3381                10.7853

 - Thermochemistry -
 -------------------
 Temperature   298.150 Kelvin.  Pressure   1.00000 Atm.
 Atom     1 has atomic number  8 and mass  15.99491

 Molecular mass:   126.06808 amu.
 Principal axes and moments of inertia in atomic units:
                           1         2         3
     Eigenvalues --   669.756591441.567041506.46345
           X            0.99960  -0.01695   0.02248
           Y            0.02002   0.98935  -0.14420
           Z           -0.01980   0.14460   0.98929
 This molecule is an asymmetric top.
 Rotational symmetry number  1.
 Warning -- assumption of classical behavior for rotation
           may cause significant error
 Rotational temperatures (Kelvin)      0.12932     0.06008     0.05749
 Rotational constants (GHZ):           2.69462     1.25193     1.19800
 Zero-point vibrational energy     419273.0 (Joules/Mol)
                                  100.20865 (Kcal/Mol)
 Warning -- explicit consideration of  10 degrees of freedom as
           vibrations may cause significant error
 Vibrational temperatures:    112.90   234.96   284.53   306.73   428.41
          (Kelvin)            505.13   525.55   595.95   655.59   691.68
                              914.14  1032.17  1074.33  1143.02  1182.93
                             1198.31  1320.06  1354.49  1411.99  1448.30
                             1486.47  1491.52  1535.74  1554.75  1568.66
                             1595.16  1680.84  1735.39  1800.80  1838.80
                             1845.44  1883.99  1915.71  1931.37  1998.88
                             2057.06  2067.98  2130.01  2151.90  2172.39
                             2598.85  4100.55  4392.35  4394.23  4417.12
                             4445.99  4479.92  4502.96  4567.14  4623.77
                             5466.84

 Zero-point correction=                           0.159693 (Hartree/Particle)
 Thermal correction to Energy=                    0.167995
 Thermal correction to Enthalpy=                  0.168939
 Thermal correction to Gibbs Free Energy=         0.126842
 Sum of electronic and zero-point Energies=           -423.041631
 Sum of electronic and thermal Energies=              -423.033329
 Sum of electronic and thermal Enthalpies=            -423.032385
 Sum of electronic and thermal Free Energies=         -423.074482

                     E (Thermal)             CV                S
                      KCal/Mol        Cal/Mol-Kelvin    Cal/Mol-Kelvin
 Total                  105.418             32.136             88.601
 Electronic               0.000              0.000              0.000
 Translational            0.889              2.981             40.409
 Rotational               0.889              2.981             28.766
 Vibrational            103.641             26.174             19.426
 Vibration     1          0.600              1.964              3.929
 Vibration     2          0.623              1.887              2.511
 Vibration     3          0.637              1.843              2.154
 Vibration     4          0.644              1.821              2.016
 Vibration     5          0.691              1.678              1.429
 Vibration     6          0.728              1.573              1.161
 Vibration     7          0.738              1.544              1.100
 Vibration     8          0.778              1.439              0.912
 Vibration     9          0.814              1.348              0.779
 Vibration    10          0.837              1.293              0.708

 Normal termination of Gaussian 09 at Tue Jan 28 04:49:04 2020.
