 Gaussian 09, Revision D.01,
 Gaussian 09:  ES64L-G09RevD.01 24-Apr-2013

 -----------------------------
 # b3lyp 6-31G(2df,p) opt Freq
 -----------------------------

 -----
 titel
 -----
 Symbolic Z-matrix:
 Charge =  0 Multiplicity = 1

 SCF Done:  E(RB3LYP) =  -423.254770810     A.U. after   14 cycles
 Optimization completed.
    -- Stationary point found.
 Normal termination of Gaussian 09 at Mon Jan 27 18:32:32 2020.

 ----------------------------------------------------------------------
 #N Geom=AllCheck Guess=TCheck SCRF=Check GenChk RB3LYP/6-31G(2df,p) Fr
 eq
 ----------------------------------------------------------------------

 Structure from the checkpoint file:  "/scratch/puck/g09_10d672c2-a5c2-40cb-9740-5973452745a1/Gau-48506.chk"
 -----
 titel
 -----
 Charge =  0 Multiplicity = 1

                         Standard orientation:
 ---------------------------------------------------------------------
 Center     Atomic      Atomic             Coordinates (Angstroms)
 Number     Number       Type             X           Y           Z
 ---------------------------------------------------------------------
      1          6           0        1.878033   -1.262394    0.225621
      2          6           0        0.537262   -0.569131    0.102156
      3          6           0       -0.382926   -1.050099   -1.069597
      4          6           0       -1.762982   -0.407258   -0.734567
      5          6           0       -1.444635    0.341809    0.571799
      6          6           0       -0.460465   -0.593409    1.282742
      7          8           0       -0.595267    1.467527    0.212230
      8          6           0        0.631910    0.947049   -0.097290
      9          8           0        1.551262    1.614089   -0.473482
     10          1           0        2.493319   -1.062403   -0.656308
     11          1           0        2.430700   -0.901995    1.098363
     12          1           0        1.751620   -2.345507    0.321811
     13          1           0        0.007848   -0.746445   -2.043680
     14          1           0       -0.432490   -2.143033   -1.059607
     15          1           0       -2.112073    0.286580   -1.501790
     16          1           0       -2.541424   -1.158763   -0.576497
     17          1           0       -2.292122    0.731166    1.133062
     18          1           0       -0.057306   -0.166183    2.204786
     19          1           0       -0.873215   -1.585741    1.484705
 ---------------------------------------------------------------------

 SCF Done:  E(RB3LYP) =  -423.254770810     A.U. after    1 cycles

 The electronic state is 1-A.
 Alpha  occ. eigenvalues --  -19.17437 -19.11998 -10.29438 -10.25193 -10.21239
 Alpha  occ. eigenvalues --  -10.19982 -10.19980 -10.19701 -10.18281  -1.09562
 Alpha  occ. eigenvalues --   -1.01797  -0.85692  -0.76563  -0.72826  -0.68689
 Alpha  occ. eigenvalues --   -0.61424  -0.60368  -0.51867  -0.51368  -0.49597
 Alpha  occ. eigenvalues --   -0.47675  -0.43707  -0.42899  -0.41353  -0.40592
 Alpha  occ. eigenvalues --   -0.38871  -0.38501  -0.36837  -0.36321  -0.34951
 Alpha  occ. eigenvalues --   -0.33409  -0.32767  -0.28786  -0.25688
 Alpha virt. eigenvalues --    0.01895   0.07225   0.09851   0.10515   0.13052
 Alpha virt. eigenvalues --    0.13757   0.14572   0.15069   0.15713   0.16847
 Alpha virt. eigenvalues --    0.17386   0.17751   0.18387   0.20795   0.22609

 Mulliken charges:
               1
     1  C   -0.480089
     2  C    0.145899
     3  C   -0.250833
     4  C   -0.225339
     5  C    0.091315
     6  C   -0.268139
     7  O   -0.244105
     8  C    0.445383
     9  O   -0.360408
    10  H    0.138310
    11  H    0.126502
    12  H    0.111868
    13  H    0.122304
    14  H    0.106696
    15  H    0.121524
    16  H    0.107405
    17  H    0.090747
    18  H    0.115196
    19  H    0.105765
 Sum of Mulliken charges =   0.00000

 Dipole moment (field-independent basis, Debye):
    X=             -2.3270    Y=             -3.4700    Z=              0.8951  Tot=              4.2728
 Quadrupole moment (field-independent basis, Debye-Ang):
   XX=            -53.8361   YY=            -58.4563   ZZ=            -51.1225
   XY=             -3.1317   XZ=              0.9182   YZ=              1.2373

  Exact polarizability:  82.540   1.781  71.361  -1.620  -0.400  67.129
 Approx polarizability: 119.259   7.843 108.594  -6.467  -2.226 100.109

                      1                      2                      3
                      A                      A                      A
 Frequencies --    149.6646               193.7387               222.3355
 Red. masses --      4.4119                 1.0824                 1.9851
 Frc consts  --      0.0582                 0.0239                 0.0578
 IR Inten    --      0.9126                 0.2368                 1.2641

                      4                      5                      6
                      A                      A                      A
 Frequencies --    267.4433               308.1283               405.3516
 Red. masses --      2.7043                 2.5564                 2.9126
 Frc consts  --      0.1140                 0.1430                 0.2820
 IR Inten    --      3.3619                 0.5207                 2.1018

                      7                      8                      9
                      A                      A                      A
 Frequencies --    439.0479               516.1896               577.1778
 Red. masses --      2.4560                 3.4433                 5.2515
 Frc consts  --      0.2789                 0.5406                 1.0308
 IR Inten    --      2.4858                 1.4397                 3.3327

                     10                     11                     12
                      A                      A                      A
 Frequencies --    614.5671               726.7307               749.2907
 Red. masses --      4.2344                 3.6455                 6.7200
 Frc consts  --      0.9423                 1.1344                 2.2229
 IR Inten    --      2.4460                 0.2113                 2.9750

                     13                     14                     15
                      A                      A                      A
 Frequencies --    813.3583               828.4623               860.4638
 Red. masses --      3.0014                 1.6701                 2.7477
 Frc consts  --      1.1699                 0.6753                 1.1986
 IR Inten    --      3.4168                 0.3907                 2.4450

                     16                     17                     18
                      A                      A                      A
 Frequencies --    889.1486               907.3445               954.4402
 Red. masses --      2.4777                 2.1426                 2.9076
 Frc consts  --      1.1541                 1.0393                 1.5606
 IR Inten    --      2.6397                 1.0424                37.1649

                     19                     20                     21
                      A                      A                      A
 Frequencies --    962.0301               971.9284              1023.7392
 Red. masses --      2.0580                 2.5202                 1.5329
 Frc consts  --      1.1222                 1.4027                 0.9466
 IR Inten    --      2.5117                31.2071                 3.1283

                     22                     23                     24
                      A                      A                      A
 Frequencies --   1037.9113              1089.1768              1093.1838
 Red. masses --      1.6015                 3.4301                 1.2853
 Frc consts  --      1.0164                 2.3975                 0.9050
 IR Inten    --     11.3804               107.9753                 3.1942

                     25                     26                     27
                      A                      A                      A
 Frequencies --   1153.4184              1185.9103              1189.1723
 Red. masses --      1.4605                 1.8602                 2.1732
 Frc consts  --      1.1448                 1.5414                 1.8106
 IR Inten    --      7.2871                 4.4566                31.5356

                     28                     29                     30
                      A                      A                      A
 Frequencies --   1227.1487              1264.8252              1270.8460
 Red. masses --      1.5387                 1.4493                 1.5974
 Frc consts  --      1.3652                 1.3660                 1.5200
 IR Inten    --      9.3653                 1.0740                 5.7349

                     31                     32                     33
                      A                      A                      A
 Frequencies --   1299.4939              1324.9683              1351.0051
 Red. masses --      1.8708                 1.5501                 1.6088
 Frc consts  --      1.8613                 1.6033                 1.7301
 IR Inten    --      2.8281                 3.1241                 9.1227

                     34                     35                     36
                      A                      A                      A
 Frequencies --   1372.7577              1417.9469              1479.7295
 Red. masses --      1.9720                 1.2774                 1.0822
 Frc consts  --      2.1895                 1.5132                 1.3961
 IR Inten    --     21.1539                 3.0403                 2.1196

                     37                     38                     39
                      A                      A                      A
 Frequencies --   1487.4413              1491.3759              1495.0948
 Red. masses --      1.0811                 1.0639                 1.0578
 Frc consts  --      1.4093                 1.3942                 1.3931
 IR Inten    --      0.8392                 6.8411                 4.1393

                     40                     41                     42
                      A                      A                      A
 Frequencies --   1510.4723              1885.2700              3039.3395
 Red. masses --      1.1111                12.7347                 1.0359
 Frc consts  --      1.4936                26.6678                 5.6378
 IR Inten    --      3.4385               347.1095                17.9443

                     43                     44                     45
                      A                      A                      A
 Frequencies --   3055.2406              3060.1383              3069.4331
 Red. masses --      1.0615                 1.0584                 1.0619
 Frc consts  --      5.8378                 5.8398                 5.8943
 IR Inten    --     24.8398                22.3434                23.5973

                     46                     47                     48
                      A                      A                      A
 Frequencies --   3102.0857              3108.3982              3115.4690
 Red. masses --      1.1041                 1.1019                 1.1033
 Frc consts  --      6.2598                 6.2731                 6.3097
 IR Inten    --      2.7311                13.2598                 9.3289

                     49                     50                     51
                      A                      A                      A
 Frequencies --   3116.2805              3123.7713              3139.9456
 Red. masses --      1.1050                 1.1050                 1.0908
 Frc consts  --      6.3223                 6.3531                 6.3363
 IR Inten    --     21.3986                29.0167                31.9202

 - Thermochemistry -
 -------------------
 Temperature   298.150 Kelvin.  Pressure   1.00000 Atm.
 Atom     1 has atomic number  6 and mass  12.00000

 Molecular mass:   126.06808 amu.
 Principal axes and moments of inertia in atomic units:
                           1         2         3
     Eigenvalues --   763.14563 934.845881218.90300
           X            0.99230  -0.12220   0.02016
           Y            0.12198   0.99246   0.01167
           Z           -0.02144  -0.00912   0.99973
 This molecule is an asymmetric top.
 Rotational symmetry number  1.
 Warning -- assumption of classical behavior for rotation
           may cause significant error
 Rotational temperatures (Kelvin)      0.11350     0.09265     0.07106
 Rotational constants (GHZ):           2.36487     1.93052     1.48063
 Zero-point vibrational energy     424302.5 (Joules/Mol)
                                  101.41072 (Kcal/Mol)
 Warning -- explicit consideration of  10 degrees of freedom as
           vibrations may cause significant error
 Vibrational temperatures:    215.33   278.75   319.89   384.79   443.33
          (Kelvin)            583.21   631.69   742.68   830.43   884.22
                             1045.60  1078.06  1170.24  1191.97  1238.01
                             1279.28  1305.46  1373.22  1384.15  1398.39
                             1472.93  1493.32  1567.08  1572.85  1659.51
                             1706.26  1710.95  1765.59  1819.80  1828.46
                             1869.68  1906.33  1943.79  1975.09  2040.11
                             2129.00  2140.09  2145.75  2151.11  2173.23
                             2712.48  4372.93  4395.80  4402.85  4416.22
                             4463.20  4472.29  4482.46  4483.63  4494.40
                             4517.68

 Zero-point correction=                           0.161608 (Hartree/Particle)
 Thermal correction to Energy=                    0.169095
 Thermal correction to Enthalpy=                  0.170039
 Thermal correction to Gibbs Free Energy=         0.130057
 Sum of electronic and zero-point Energies=           -423.093163
 Sum of electronic and thermal Energies=              -423.085676
 Sum of electronic and thermal Enthalpies=            -423.084731
 Sum of electronic and thermal Free Energies=         -423.124714

                     E (Thermal)             CV                S
                      KCal/Mol        Cal/Mol-Kelvin    Cal/Mol-Kelvin
 Total                  106.109             30.097             84.151
 Electronic               0.000              0.000              0.000
 Translational            0.889              2.981             40.409
 Rotational               0.889              2.981             28.255
 Vibrational            104.331             24.135             15.487
 Vibration     1          0.618              1.903              2.676
 Vibration     2          0.635              1.849              2.192
 Vibration     3          0.648              1.807              1.940
 Vibration     4          0.673              1.733              1.613
 Vibration     5          0.698              1.658              1.372
 Vibration     6          0.770              1.459              0.943
 Vibration     7          0.799              1.385              0.830
 Vibration     8          0.871              1.214              0.619
 Vibration     9          0.934              1.081              0.491
 Vibration    10          0.974              1.001              0.425

 Optimization completed.
    -- Stationary point found.
 Normal termination of Gaussian 09 at Mon Jan 27 19:16:38 2020.
