 Gaussian 09, Revision D.01,
 Gaussian 09:  ES64L-G09RevD.01 24-Apr-2013

 -----------------------------
 # b3lyp 6-31G(2df,p) opt Freq
 -----------------------------

 -----
 titel
 -----
 Symbolic Z-matrix:
 Charge =  0 Multiplicity = 1

 SCF Done:  E(RB3LYP) =  -423.129266193     A.U. after   14 cycles
 Optimization completed.
    -- Stationary point found.
 Normal termination of Gaussian 09 at Mon Jan 27 15:37:58 2020.

 ----------------------------------------------------------------------
 #N Geom=AllCheck Guess=TCheck SCRF=Check GenChk RB3LYP/6-31G(2df,p) Fr
 eq
 ----------------------------------------------------------------------

 Structure from the checkpoint file:  "/scratch/puck/g09_bb1d4958-a1a1-4c49-9271-4cd5f2de9bba/Gau-82340.chk"
 -----
 titel
 -----
 Charge =  0 Multiplicity = 1

                         Standard orientation:
 ---------------------------------------------------------------------
 Center     Atomic      Atomic             Coordinates (Angstroms)
 Number     Number       Type             X           Y           Z
 ---------------------------------------------------------------------
      1          8           0        1.599332    1.777337   -0.081784
      2          6           0        1.073218    0.504172    0.269399
      3          6           0        2.136797   -0.511417   -0.128152
      4          8           0        2.017019   -1.699051    0.023641
      5          6           0       -0.240192    0.216194   -0.454355
      6          6           0       -1.595003    0.836980    0.034450
      7          6           0       -2.291275   -0.250612   -0.834605
      8          6           0       -1.151743   -0.991293   -0.071409
      9          6           0       -1.608019   -0.202267    1.192484
     10          1           0        0.919997    2.436575    0.088680
     11          1           0        0.953561    0.416154    1.359705
     12          1           0        3.045602   -0.053654   -0.577603
     13          1           0       -0.069199    0.325896   -1.531720
     14          1           0       -1.856023    1.896361    0.090201
     15          1           0       -3.314369   -0.512140   -0.553031
     16          1           0       -2.181477   -0.160834   -1.918709
     17          1           0       -0.886378   -2.045094   -0.134071
     18          1           0       -2.593359   -0.461268    1.588574
     19          1           0       -0.891853   -0.078821    2.006249
 ---------------------------------------------------------------------

 SCF Done:  E(RB3LYP) =  -423.129266193     A.U. after    1 cycles

 The electronic state is 1-A.
 Alpha  occ. eigenvalues --  -19.14913 -19.14322 -10.27038 -10.24213 -10.21104
 Alpha  occ. eigenvalues --  -10.20592 -10.20268 -10.19321 -10.19258  -1.05205
 Alpha  occ. eigenvalues --   -1.03034  -0.91833  -0.74959  -0.67341  -0.65714
 Alpha  occ. eigenvalues --   -0.63106  -0.57584  -0.53962  -0.51766  -0.50247
 Alpha  occ. eigenvalues --   -0.47916  -0.46514  -0.43578  -0.43036  -0.39025
 Alpha  occ. eigenvalues --   -0.37568  -0.35478  -0.33589  -0.33191  -0.32870
 Alpha  occ. eigenvalues --   -0.32165  -0.31046  -0.27583  -0.25182
 Alpha virt. eigenvalues --   -0.02648   0.06224   0.10622   0.11183   0.12373
 Alpha virt. eigenvalues --    0.13386   0.14189   0.14616   0.15007   0.15151
 Alpha virt. eigenvalues --    0.16574   0.17645   0.19680   0.21178   0.22457

 Mulliken charges:
               1
     1  O   -0.438595
     2  C   -0.030744
     3  C    0.154756
     4  O   -0.248486
     5  C    0.047347
     6  C   -0.080410
     7  C   -0.221111
     8  C   -0.048107
     9  C   -0.225670
    10  H    0.290107
    11  H    0.095234
    12  H    0.094355
    13  H    0.073347
    14  H    0.065753
    15  H    0.093469
    16  H    0.093323
    17  H    0.094672
    18  H    0.094575
    19  H    0.096186
 Sum of Mulliken charges =   0.00000

 Dipole moment (field-independent basis, Debye):
    X=             -1.9046    Y=              2.0096    Z=              0.2954  Tot=              2.7845
 Quadrupole moment (field-independent basis, Debye-Ang):
   XX=            -55.9544   YY=            -55.9227   ZZ=            -52.2375
   XY=              1.7438   XZ=              0.1782   YZ=              1.1281

  Exact polarizability:  87.593   1.047  74.159  -2.093  -1.002  66.629
 Approx polarizability: 114.749   1.362 120.332  -3.609  -2.821 102.550

                      1                      2                      3
                      A                      A                      A
 Frequencies --     50.0860                65.6306               138.4716
 Red. masses --      3.4451                 3.3290                 3.4836
 Frc consts  --      0.0051                 0.0084                 0.0394
 IR Inten    --      5.3700                10.7600                 1.2910

                      4                      5                      6
                      A                      A                      A
 Frequencies --    230.3387               233.2180               262.5313
 Red. masses --      3.1762                 1.4149                 2.4238
 Frc consts  --      0.0993                 0.0453                 0.0984
 IR Inten    --     20.0126                45.9455                39.7844

                      7                      8                      9
                      A                      A                      A
 Frequencies --    391.5804               439.2797               536.6698
 Red. masses --      4.6155                 3.7511                 3.1076
 Frc consts  --      0.4170                 0.4265                 0.5273
 IR Inten    --      3.8167                10.4330                 4.3534

                     10                     11                     12
                      A                      A                      A
 Frequencies --    572.9093               593.0032               772.3163
 Red. masses --      1.8532                 5.0087                 2.8415
 Frc consts  --      0.3584                 1.0377                 0.9986
 IR Inten    --      1.3850                14.7203                 0.2254

                     13                     14                     15
                      A                      A                      A
 Frequencies --    806.8678               849.8682               892.2844
 Red. masses --      2.7422                 2.2441                 2.5468
 Frc consts  --      1.0519                 0.9550                 1.1947
 IR Inten    --      1.4939                 1.3000                 4.9024

                     16                     17                     18
                      A                      A                      A
 Frequencies --    901.0388               905.9337               966.0271
 Red. masses --      2.1043                 2.3695                 2.6557
 Frc consts  --      1.0066                 1.1458                 1.4602
 IR Inten    --      0.3149                 0.4279                19.0275

                     19                     20                     21
                      A                      A                      A
 Frequencies --   1006.3468              1008.2470              1022.0422
 Red. masses --      1.3039                 1.1168                 2.1622
 Frc consts  --      0.7780                 0.6689                 1.3307
 IR Inten    --      1.5716                 2.4843                52.4799

                     22                     23                     24
                      A                      A                      A
 Frequencies --   1032.9185              1086.8601              1101.0667
 Red. masses --      1.0482                 1.7877                 2.8452
 Frc consts  --      0.6589                 1.2442                 2.0323
 IR Inten    --      4.0072                 6.3707                41.5010

                     25                     26                     27
                      A                      A                      A
 Frequencies --   1108.4520              1114.4506              1142.8933
 Red. masses --      1.7480                 3.7548                 1.3883
 Frc consts  --      1.2654                 2.7476                 1.0684
 IR Inten    --      3.7095                 3.2545                 0.1030

                     28                     29                     30
                      A                      A                      A
 Frequencies --   1157.2434              1189.2519              1214.8507
 Red. masses --      2.5640                 1.3956                 1.4253
 Frc consts  --      2.0231                 1.1630                 1.2393
 IR Inten    --      3.5422                 3.1992                 0.9349

                     31                     32                     33
                      A                      A                      A
 Frequencies --   1226.3227              1243.2194              1248.5450
 Red. masses --      1.1602                 1.6303                 1.6226
 Frc consts  --      1.0280                 1.4846                 1.4903
 IR Inten    --     57.5414                 4.8934                21.4117

                     34                     35                     36
                      A                      A                      A
 Frequencies --   1265.2359              1297.0752              1368.2855
 Red. masses --      1.7197                 1.3245                 1.2441
 Frc consts  --      1.6220                 1.3129                 1.3723
 IR Inten    --      2.2008                14.8993                32.0006

                     37                     38                     39
                      A                      A                      A
 Frequencies --   1405.5030              1425.8159              1505.7840
 Red. masses --      1.4620                 1.3113                 1.0983
 Frc consts  --      1.7016                 1.5707                 1.4673
 IR Inten    --      6.9137                 5.7463                 0.6319

                     40                     41                     42
                      A                      A                      A
 Frequencies --   1544.3603              1835.6258              2897.7641
 Red. masses --      1.1356                10.8392                 1.0848
 Frc consts  --      1.5958                21.5188                 5.3667
 IR Inten    --      1.4952               109.1248               106.9329

                     43                     44                     45
                      A                      A                      A
 Frequencies --   2990.2662              3040.6353              3051.6467
 Red. masses --      1.0798                 1.0835                 1.0547
 Frc consts  --      5.6888                 5.9019                 5.7871
 IR Inten    --     14.7684                32.8495                52.6955

                     46                     47                     48
                      A                      A                      A
 Frequencies --   3063.7250              3083.9181              3118.5375
 Red. masses --      1.0580                 1.0891                 1.1110
 Frc consts  --      5.8513                 6.1029                 6.3661
 IR Inten    --     45.2099                63.6053                35.3261

                     49                     50                     51
                      A                      A                      A
 Frequencies --   3124.6404              3134.7083              3832.8851
 Red. masses --      1.1076                 1.0928                 1.0664
 Frc consts  --      6.3715                 6.3270                 9.2303
 IR Inten    --     50.1294                25.1792                20.1691

 - Thermochemistry -
 -------------------
 Temperature   298.150 Kelvin.  Pressure   1.00000 Atm.
 Atom     1 has atomic number  8 and mass  15.99491

 Molecular mass:   126.06808 amu.
 Principal axes and moments of inertia in atomic units:
                           1         2         3
     Eigenvalues --   656.326091423.697061763.10937
           X            0.99983   0.01830  -0.00070
           Y           -0.01830   0.99982   0.00482
           Z            0.00079  -0.00481   0.99999
 This molecule is an asymmetric top.
 Rotational symmetry number  1.
 Warning -- assumption of classical behavior for rotation
           may cause significant error
 Rotational temperatures (Kelvin)      0.13197     0.06084     0.04913
 Rotational constants (GHZ):           2.74976     1.26764     1.02361
 Zero-point vibrational energy     415685.4 (Joules/Mol)
                                   99.35120 (Kcal/Mol)
 Warning -- explicit consideration of  11 degrees of freedom as
           vibrations may cause significant error
 Vibrational temperatures:     72.06    94.43   199.23   331.41   335.55
          (Kelvin)            377.72   563.40   632.02   772.15   824.29
                              853.20  1111.19  1160.90  1222.77  1283.80
                             1296.39  1303.43  1389.90  1447.91  1450.64
                             1470.49  1486.14  1563.75  1584.19  1594.81
                             1603.44  1644.37  1665.01  1711.07  1747.90
                             1764.40  1788.71  1796.38  1820.39  1866.20
                             1968.66  2022.20  2051.43  2166.48  2221.99
                             2641.05  4169.23  4302.32  4374.79  4390.63
                             4408.01  4437.06  4486.87  4495.65  4510.14
                             5514.66

 Zero-point correction=                           0.158326 (Hartree/Particle)
 Thermal correction to Energy=                    0.166925
 Thermal correction to Enthalpy=                  0.167870
 Thermal correction to Gibbs Free Energy=         0.124109
 Sum of electronic and zero-point Energies=           -422.970940
 Sum of electronic and thermal Energies=              -422.962341
 Sum of electronic and thermal Enthalpies=            -422.961397
 Sum of electronic and thermal Free Energies=         -423.005157

                     E (Thermal)             CV                S
                      KCal/Mol        Cal/Mol-Kelvin    Cal/Mol-Kelvin
 Total                  104.747             31.926             92.101
 Electronic               0.000              0.000              0.000
 Translational            0.889              2.981             40.409
 Rotational               0.889              2.981             28.890
 Vibrational            102.970             25.964             22.803
 Vibration     1          0.595              1.978              4.814
 Vibration     2          0.597              1.971              4.280
 Vibration     3          0.614              1.915              2.825
 Vibration     4          0.652              1.795              1.876
 Vibration     5          0.654              1.790              1.854
 Vibration     6          0.670              1.741              1.645
 Vibration     7          0.759              1.488              0.994
 Vibration     8          0.799              1.385              0.829
 Vibration     9          0.892              1.169              0.572
 Vibration    10          0.929              1.090              0.499
 Vibration    11          0.951              1.047              0.462

 Optimization completed.
    -- Stationary point found.
 Normal termination of Gaussian 09 at Mon Jan 27 16:22:26 2020.
