 Gaussian 09, Revision D.01,
 Gaussian 09:  ES64L-G09RevD.01 24-Apr-2013

 -----------------------------
 # b3lyp 6-31G(2df,p) opt Freq
 -----------------------------

 -----
 titel
 -----
 Symbolic Z-matrix:
 Charge =  0 Multiplicity = 1

 SCF Done:  E(RB3LYP) =  -423.193166970     A.U. after   14 cycles
 Optimization completed.
    -- Stationary point found.
 Normal termination of Gaussian 09 at Mon Jan 27 14:10:48 2020.

 ----------------------------------------------------------------------
 #N Geom=AllCheck Guess=TCheck SCRF=Check GenChk RB3LYP/6-31G(2df,p) Fr
 eq
 ----------------------------------------------------------------------

 Structure from the checkpoint file:  "/scratch/puck/g09_2ee582cc-b602-4f51-8c20-f21abf48df6c/Gau-70665.chk"
 -----
 titel
 -----
 Charge =  0 Multiplicity = 1

                         Standard orientation:
 ---------------------------------------------------------------------
 Center     Atomic      Atomic             Coordinates (Angstroms)
 Number     Number       Type             X           Y           Z
 ---------------------------------------------------------------------
      1          6           0       -3.117307   -0.468994    0.437817
      2          6           0       -1.860596    0.206634   -0.057102
      3          8           0       -1.774404    1.354121   -0.414406
      4          8           0       -0.823435   -0.661008   -0.055606
      5          6           0        0.427549   -0.143783   -0.535260
      6          6           0        1.497564   -1.268613   -0.459081
      7          6           0        2.273430   -0.437503    0.573382
      8          6           0        2.599145    0.908047   -0.008589
      9          6           0        1.208015    0.659470    0.506742
     10          1           0       -2.946424   -0.910282    1.423473
     11          1           0       -3.925571    0.259565    0.486986
     12          1           0       -3.393022   -1.283250   -0.238873
     13          1           0        0.257070    0.351572   -1.494195
     14          1           0        1.052115   -2.172281   -0.039453
     15          1           0        2.023228   -1.520193   -1.385777
     16          1           0        2.797134   -0.834626    1.433911
     17          1           0        3.207757    1.557418    0.612372
     18          1           0        2.781783    1.017850   -1.075900
     19          1           0        0.761834    1.257766    1.290106
 ---------------------------------------------------------------------

 SCF Done:  E(RB3LYP) =  -423.193166970     A.U. after    1 cycles

 The electronic state is 1-A.
 Alpha  occ. eigenvalues --  -19.17678 -19.12072 -10.30352 -10.24169 -10.19530
 Alpha  occ. eigenvalues --  -10.19261 -10.19234 -10.18988 -10.18808  -1.09617
 Alpha  occ. eigenvalues --   -1.00980  -0.89722  -0.76296  -0.72298  -0.65781
 Alpha  occ. eigenvalues --   -0.59861  -0.57678  -0.53365  -0.50635  -0.48642
 Alpha  occ. eigenvalues --   -0.47672  -0.45231  -0.44448  -0.42523  -0.40220
 Alpha  occ. eigenvalues --   -0.39292  -0.38039  -0.36835  -0.34199  -0.33099
 Alpha  occ. eigenvalues --   -0.30100  -0.28447  -0.26792  -0.26136
 Alpha virt. eigenvalues --    0.01764   0.08930   0.10783   0.11482   0.11938
 Alpha virt. eigenvalues --    0.13059   0.14437   0.15275   0.16138   0.16733
 Alpha virt. eigenvalues --    0.17036   0.17887   0.19544   0.20879   0.21926

 Mulliken charges:
               1
     1  C   -0.478644
     2  C    0.420432
     3  O   -0.353014
     4  O   -0.259413
     5  C    0.157194
     6  C   -0.271861
     7  C   -0.042873
     8  C   -0.277647
     9  C   -0.061339
    10  H    0.147859
    11  H    0.147329
    12  H    0.149752
    13  H    0.095591
    14  H    0.119486
    15  H    0.098092
    16  H    0.087122
    17  H    0.116056
    18  H    0.107678
    19  H    0.098199
 Sum of Mulliken charges =   0.00000

 Dipole moment (field-independent basis, Debye):
    X=              0.5488    Y=             -1.6630    Z=              0.7183  Tot=              1.8929
 Quadrupole moment (field-independent basis, Debye-Ang):
   XX=            -48.7410   YY=            -56.4369   ZZ=            -51.0259
   XY=              4.4593   XZ=             -1.2408   YZ=              1.6310

  Exact polarizability:  92.570   1.202  73.451  -1.673  -0.579  63.128
 Approx polarizability: 112.554  -2.226 117.271  -2.020  -4.668  95.653

                      1                      2                      3
                      A                      A                      A
 Frequencies --     51.4811                68.1696                93.8943
 Red. masses --      2.7682                 1.6011                 2.1233
 Frc consts  --      0.0043                 0.0044                 0.0110
 IR Inten    --      2.1484                 0.2437                 0.9845

                      4                      5                      6
                      A                      A                      A
 Frequencies --    130.9993               221.3837               325.9807
 Red. masses --      3.5223                 3.5000                 3.4180
 Frc consts  --      0.0356                 0.1011                 0.2140
 IR Inten    --      2.9087                 2.6693                 1.9129

                      7                      8                      9
                      A                      A                      A
 Frequencies --    354.3366               406.2102               498.4206
 Red. masses --      3.4679                 2.0713                 3.3021
 Frc consts  --      0.2565                 0.2014                 0.4833
 IR Inten    --      2.8394                 2.5495                 2.2958

                     10                     11                     12
                      A                      A                      A
 Frequencies --    608.2640               649.2003               722.2375
 Red. masses --      2.7312                 4.4123                 2.3310
 Frc consts  --      0.5954                 1.0957                 0.7164
 IR Inten    --      4.3135                 8.4711                 0.8522

                     13                     14                     15
                      A                      A                      A
 Frequencies --    776.9242               815.0712               880.0246
 Red. masses --      1.6940                 2.0557                 2.3987
 Frc consts  --      0.6025                 0.8047                 1.0945
 IR Inten    --      5.8548                 4.5386                16.7142

                     16                     17                     18
                      A                      A                      A
 Frequencies --    906.6980               927.7445               945.3751
 Red. masses --      2.2591                 1.9242                 2.8771
 Frc consts  --      1.0942                 0.9758                 1.5150
 IR Inten    --      1.3829                 4.7526                 2.0094

                     19                     20                     21
                      A                      A                      A
 Frequencies --    964.8330               997.8922              1016.8731
 Red. masses --      1.9583                 1.4767                 1.7092
 Frc consts  --      1.0741                 0.8664                 1.0413
 IR Inten    --     15.4403                 2.7092                16.3264

                     22                     23                     24
                      A                      A                      A
 Frequencies --   1056.6928              1058.9965              1065.5157
 Red. masses --      1.4615                 1.8068                 1.9548
 Frc consts  --      0.9615                 1.1938                 1.3076
 IR Inten    --     35.0974                10.9981                17.9294

                     25                     26                     27
                      A                      A                      A
 Frequencies --   1078.0071              1088.9804              1119.2398
 Red. masses --      1.5485                 1.4820                 2.3673
 Frc consts  --      1.0602                 1.0355                 1.7472
 IR Inten    --      3.8012                 2.2275                60.7754

                     28                     29                     30
                      A                      A                      A
 Frequencies --   1168.7469              1214.1834              1243.1149
 Red. masses --      1.5570                 1.7612                 1.7660
 Frc consts  --      1.2531                 1.5298                 1.6079
 IR Inten    --     14.1669                 9.9139                39.9783

                     31                     32                     33
                      A                      A                      A
 Frequencies --   1255.1169              1266.3402              1301.2906
 Red. masses --      1.4658                 3.0201                 1.7620
 Frc consts  --      1.3604                 2.8534                 1.7579
 IR Inten    --      4.5226               363.4890                29.4587

                     34                     35                     36
                      A                      A                      A
 Frequencies --   1347.9837              1383.4745              1400.9920
 Red. masses --      1.9162                 1.3306                 1.5041
 Frc consts  --      2.0515                 1.5006                 1.7395
 IR Inten    --      0.8634                32.6332                26.5960

                     37                     38                     39
                      A                      A                      A
 Frequencies --   1469.5326              1476.1022              1476.8097
 Red. masses --      1.0513                 1.0933                 1.0755
 Frc consts  --      1.3377                 1.4035                 1.3820
 IR Inten    --     11.3827                 2.9530                 5.5227

                     40                     41                     42
                      A                      A                      A
 Frequencies --   1495.1270              1822.5411              3050.5579
 Red. masses --      1.2017                11.3218                 1.0638
 Frc consts  --      1.5827                22.1575                 5.8328
 IR Inten    --      1.6929               204.4856                38.0116

                     43                     44                     45
                      A                      A                      A
 Frequencies --   3056.7167              3079.7360              3103.1176
 Red. masses --      1.0364                 1.0858                 1.0583
 Frc consts  --      5.7056                 6.0678                 6.0039
 IR Inten    --      2.5480                26.8567                21.3792

                     46                     47                     48
                      A                      A                      A
 Frequencies --   3121.6127              3123.6479              3168.9710
 Red. masses --      1.0991                 1.1020                 1.1028
 Frc consts  --      6.3103                 6.3352                 6.5252
 IR Inten    --      5.1918                15.7641                 7.4604

                     49                     50                     51
                      A                      A                      A
 Frequencies --   3185.5769              3195.7689              3208.3635
 Red. masses --      1.0933                 1.1059                 1.0992
 Frc consts  --      6.5368                 6.6543                 6.6666
 IR Inten    --     15.9494                 7.6083                14.1886

 - Thermochemistry -
 -------------------
 Temperature   298.150 Kelvin.  Pressure   1.00000 Atm.
 Atom     1 has atomic number  6 and mass  12.00000

 Molecular mass:   126.06808 amu.
 Principal axes and moments of inertia in atomic units:
                           1         2         3
     Eigenvalues --   434.681681810.167032031.43393
           X            0.99978   0.01858  -0.00981
           Y           -0.01842   0.99970   0.01595
           Z            0.01011  -0.01576   0.99982
 This molecule is an asymmetric top.
 Rotational symmetry number  1.
 Warning -- assumption of classical behavior for rotation
           may cause significant error
 Rotational temperatures (Kelvin)      0.19926     0.04785     0.04264
 Rotational constants (GHZ):           4.15187     0.99700     0.88841
 Zero-point vibrational energy     415372.6 (Joules/Mol)
                                   99.27643 (Kcal/Mol)
 Warning -- explicit consideration of  10 degrees of freedom as
           vibrations may cause significant error
 Vibrational temperatures:     74.07    98.08   135.09   188.48   318.52
          (Kelvin)            469.01   509.81   584.45   717.12   875.16
                              934.05  1039.14  1117.82  1172.70  1266.16
                             1304.53  1334.82  1360.18  1388.18  1435.74
                             1463.05  1520.34  1523.66  1533.04  1551.01
                             1566.80  1610.33  1681.56  1746.94  1788.56
                             1805.83  1821.98  1872.26  1939.45  1990.51
                             2015.71  2114.33  2123.78  2124.80  2151.15
                             2622.23  4389.07  4397.93  4431.05  4464.69
                             4491.30  4494.23  4559.44  4583.33  4597.99
                             4616.11

 Zero-point correction=                           0.158207 (Hartree/Particle)
 Thermal correction to Energy=                    0.167064
 Thermal correction to Enthalpy=                  0.168008
 Thermal correction to Gibbs Free Energy=         0.123448
 Sum of electronic and zero-point Energies=           -423.034960
 Sum of electronic and thermal Energies=              -423.026103
 Sum of electronic and thermal Enthalpies=            -423.025159
 Sum of electronic and thermal Free Energies=         -423.069719

                     E (Thermal)             CV                S
                      KCal/Mol        Cal/Mol-Kelvin    Cal/Mol-Kelvin
 Total                  104.834             32.193             93.785
 Electronic               0.000              0.000              0.000
 Translational            0.889              2.981             40.409
 Rotational               0.889              2.981             28.860
 Vibrational            103.057             26.231             24.517
 Vibration     1          0.596              1.977              4.760
 Vibration     2          0.598              1.969              4.206
 Vibration     3          0.603              1.954              3.577
 Vibration     4          0.612              1.922              2.931
 Vibration     5          0.648              1.809              1.948
 Vibration     6          0.710              1.624              1.280
 Vibration     7          0.730              1.566              1.147
 Vibration     8          0.771              1.457              0.940
 Vibration     9          0.854              1.254              0.662
 Vibration    10          0.967              1.014              0.436

 Optimization completed.
    -- Stationary point found.
 Normal termination of Gaussian 09 at Mon Jan 27 14:57:42 2020.
