 Gaussian 09, Revision D.01,
 Gaussian 09:  ES64L-G09RevD.01 24-Apr-2013

 -----------------------------
 # b3lyp 6-31G(2df,p) opt Freq
 -----------------------------

 -----
 titel
 -----
 Symbolic Z-matrix:
 Charge =  0 Multiplicity = 1

 SCF Done:  E(RB3LYP) =  -423.179342596     A.U. after   15 cycles
 SCF Done:  E(RB3LYP) =  -423.179342522     A.U. after    7 cycles
 SCF Done:  E(RB3LYP) =  -423.179342609     A.U. after    6 cycles
 Optimization completed.
    -- Stationary point found.
 Normal termination of Gaussian 09 at Tue Jan 28 08:26:06 2020.

 ----------------------------------------------------------------------
 #N Geom=AllCheck Guess=TCheck SCRF=Check GenChk RB3LYP/6-31G(2df,p) Fr
 eq
 ----------------------------------------------------------------------

 Structure from the checkpoint file:  "/scratch/puck/g09_b1809b5b-b251-4a46-8072-a51277b85ae6/Gau-74465.chk"
 -----
 titel
 -----
 Charge =  0 Multiplicity = 1

                         Standard orientation:
 ---------------------------------------------------------------------
 Center     Atomic      Atomic             Coordinates (Angstroms)
 Number     Number       Type             X           Y           Z
 ---------------------------------------------------------------------
      1          6           0       -3.234306   -0.863256    0.173561
      2          6           0       -1.805564   -1.110437   -0.312384
      3          6           0       -0.767578   -0.145735    0.310478
      4          6           0        0.645816   -0.544353   -0.125774
      5          8           0        1.583248    0.264770    0.608254
      6          6           0        2.870056    0.116658    0.269254
      7          8           0        3.297331   -0.627324   -0.570135
      8          6           0       -1.049187    1.248101   -0.029863
      9          6           0       -1.288879    2.384662   -0.339000
     10          1           0       -3.310782   -0.991088    1.258952
     11          1           0       -3.560580    0.152025   -0.068313
     12          1           0       -3.929613   -1.565618   -0.295149
     13          1           0       -1.502949   -2.136066   -0.068775
     14          1           0       -1.761064   -1.018319   -1.403943
     15          1           0       -0.813400   -0.252099    1.403376
     16          1           0        0.834531   -1.599431    0.096474
     17          1           0        0.793409   -0.388557   -1.197893
     18          1           0        3.478348    0.791916    0.890474
     19          1           0       -1.494681    3.393835   -0.597792
 ---------------------------------------------------------------------

 SCF Done:  E(RB3LYP) =  -423.179342609     A.U. after    1 cycles

 The electronic state is 1-A.
 Alpha  occ. eigenvalues --  -19.19177 -19.13456 -10.30899 -10.24971 -10.22265
 Alpha  occ. eigenvalues --  -10.19813 -10.18434 -10.18013 -10.17577  -1.10843
 Alpha  occ. eigenvalues --   -1.02303  -0.83527  -0.75234  -0.73704  -0.67341
 Alpha  occ. eigenvalues --   -0.61297  -0.59111  -0.53858  -0.52208  -0.50487
 Alpha  occ. eigenvalues --   -0.47312  -0.46608  -0.44122  -0.42727  -0.41669
 Alpha  occ. eigenvalues --   -0.38403  -0.36910  -0.35885  -0.35597  -0.34795
 Alpha  occ. eigenvalues --   -0.30852  -0.28125  -0.27029  -0.26877
 Alpha virt. eigenvalues --    0.00763   0.04548   0.04918   0.09662   0.11077
 Alpha virt. eigenvalues --    0.11733   0.12383   0.12664   0.14743   0.15530
 Alpha virt. eigenvalues --    0.16768   0.17681   0.18362   0.19334   0.23529

 Mulliken charges:
               1
     1  C   -0.391761
     2  C   -0.179946
     3  C   -0.177220
     4  C   -0.068247
     5  O   -0.203899
     6  C    0.184177
     7  O   -0.301348
     8  C    0.354856
     9  C   -0.484068
    10  H    0.116262
    11  H    0.136060
    12  H    0.116938
    13  H    0.101172
    14  H    0.111844
    15  H    0.115198
    16  H    0.122421
    17  H    0.134992
    18  H    0.112808
    19  H    0.199761
 Sum of Mulliken charges =   0.00000

 Dipole moment (field-independent basis, Debye):
    X=             -1.7832    Y=              0.1111    Z=              0.8264  Tot=              1.9685
 Quadrupole moment (field-independent basis, Debye-Ang):
   XX=            -58.6247   YY=            -49.6293   ZZ=            -53.6138
   XY=              4.1418   XZ=              4.7800   YZ=             -2.2103

  Exact polarizability:  89.126  -1.624  86.382   0.570  -0.922  60.346
 Approx polarizability: 106.458  -9.828 135.423  -2.079  -2.333  97.207

                      1                      2                      3
                      A                      A                      A
 Frequencies --     28.2831                82.4185               100.0291
 Red. masses --      7.1542                 3.0813                 2.6711
 Frc consts  --      0.0034                 0.0123                 0.0157
 IR Inten    --      1.4622                 0.5893                 0.3918

                      4                      5                      6
                      A                      A                      A
 Frequencies --    126.7577               159.7158               211.5842
 Red. masses --      3.4389                 2.4127                 2.0144
 Frc consts  --      0.0326                 0.0363                 0.0531
 IR Inten    --      1.0132                 0.4448                 0.5956

                      7                      8                      9
                      A                      A                      A
 Frequencies --    240.8439               262.9743               339.9326
 Red. masses --      4.1241                 1.5958                 2.5818
 Frc consts  --      0.1409                 0.0650                 0.1758
 IR Inten    --      5.5054                 1.8514                15.3588

                     10                     11                     12
                      A                      A                      A
 Frequencies --    356.5903               390.1732               530.4749
 Red. masses --      4.2903                 3.6698                 3.3810
 Frc consts  --      0.3214                 0.3292                 0.5606
 IR Inten    --      3.4509                 0.6881                 1.7874

                     13                     14                     15
                      A                      A                      A
 Frequencies --    577.9705               632.3613               643.0018
 Red. masses --      3.6256                 1.2167                 1.2224
 Frc consts  --      0.7136                 0.2867                 0.2978
 IR Inten    --     13.2436                40.3323                44.8850

                     16                     17                     18
                      A                      A                      A
 Frequencies --    754.3651               797.5054               854.4668
 Red. masses --      2.1666                 2.1560                 2.2975
 Frc consts  --      0.7264                 0.8079                 0.9883
 IR Inten    --      2.9082                 4.9217                 4.1907

                     19                     20                     21
                      A                      A                      A
 Frequencies --    916.7046               963.0857              1012.0675
 Red. masses --      2.1175                 2.7900                 1.6617
 Frc consts  --      1.0484                 1.5247                 1.0028
 IR Inten    --      7.5779                12.5860                 2.2418

                     22                     23                     24
                      A                      A                      A
 Frequencies --   1045.4486              1046.2014              1091.1372
 Red. masses --      1.7321                 2.7692                 2.5596
 Frc consts  --      1.1154                 1.7858                 1.7955
 IR Inten    --      0.6990                 5.0657                 1.3324

                     25                     26                     27
                      A                      A                      A
 Frequencies --   1129.8457              1154.7816              1215.8796
 Red. masses --      1.7184                 2.3986                 8.2357
 Frc consts  --      1.2924                 1.8845                 7.1735
 IR Inten    --      1.8033                 9.7275               433.4825

                     28                     29                     30
                      A                      A                      A
 Frequencies --   1255.0921              1274.0608              1301.9979
 Red. masses --      1.1867                 1.2668                 1.1404
 Frc consts  --      1.1014                 1.2115                 1.1390
 IR Inten    --      3.5734                 0.1357                 0.3596

                     31                     32                     33
                      A                      A                      A
 Frequencies --   1368.3142              1380.2134              1398.0555
 Red. masses --      1.3932                 1.4243                 1.3697
 Frc consts  --      1.5369                 1.5986                 1.5774
 IR Inten    --      1.8736                10.3027                 6.4614

                     34                     35                     36
                      A                      A                      A
 Frequencies --   1406.7462              1416.7080              1486.1731
 Red. masses --      1.1474                 1.2467                 1.0711
 Frc consts  --      1.3379                 1.4742                 1.3939
 IR Inten    --      1.9850                 1.7749                 0.1845

                     37                     38                     39
                      A                      A                      A
 Frequencies --   1498.2234              1503.9870              1508.6503
 Red. masses --      1.0401                 1.0733                 1.0649
 Frc consts  --      1.3756                 1.4304                 1.4280
 IR Inten    --      4.4561                 7.8644                 4.1812

                     40                     41                     42
                      A                      A                      A
 Frequencies --   1822.1252              2235.9364              3013.6950
 Red. masses --      9.4193                 5.9185                 1.0807
 Frc consts  --     18.4258                17.4334                 5.7830
 IR Inten    --    300.7379                 0.3481                 6.8278

                     43                     44                     45
                      A                      A                      A
 Frequencies --   3029.6341              3033.3416              3038.2340
 Red. masses --      1.0599                 1.0905                 1.0374
 Frc consts  --      5.7317                 5.9120                 5.6421
 IR Inten    --     20.6077                67.4644                23.5370

                     46                     47                     48
                      A                      A                      A
 Frequencies --   3054.5268              3068.5377              3105.6995
 Red. masses --      1.0580                 1.1012                 1.1012
 Frc consts  --      5.8158                 6.1092                 6.2580
 IR Inten    --     19.1280                13.6846                25.1791

                     49                     50                     51
                      A                      A                      A
 Frequencies --   3109.7697              3120.9840              3503.4785
 Red. masses --      1.1068                 1.1017                 1.1623
 Frc consts  --      6.3062                 6.3227                 8.4057
 IR Inten    --     26.6238                25.7103                63.9603

 - Thermochemistry -
 -------------------
 Temperature   298.150 Kelvin.  Pressure   1.00000 Atm.
 Atom     1 has atomic number  6 and mass  12.00000

 Molecular mass:   126.06808 amu.
 Principal axes and moments of inertia in atomic units:
                           1         2         3
     Eigenvalues --   608.531932170.288422603.63487
           X            0.99971   0.02374   0.00309
           Y           -0.02372   0.99971  -0.00450
           Z           -0.00319   0.00442   0.99999
 This molecule is an asymmetric top.
 Rotational symmetry number  1.
 Warning -- assumption of classical behavior for rotation
           may cause significant error
 Rotational temperatures (Kelvin)      0.14233     0.03991     0.03327
 Rotational constants (GHZ):           2.96573     0.83157     0.69316
 Zero-point vibrational energy     410311.8 (Joules/Mol)
                                   98.06689 (Kcal/Mol)
 Warning -- explicit consideration of  13 degrees of freedom as
           vibrations may cause significant error
 Vibrational temperatures:     40.69   118.58   143.92   182.38   229.80
          (Kelvin)            304.42   346.52   378.36   489.09   513.05
                              561.37   763.23   831.57   909.83   925.14
                             1085.36  1147.43  1229.39  1318.93  1385.66
                             1456.14  1504.17  1505.25  1569.90  1625.59
                             1661.47  1749.38  1805.80  1833.09  1873.28
                             1968.70  1985.82  2011.49  2023.99  2038.32
                             2138.27  2155.61  2163.90  2170.61  2621.63
                             3217.01  4336.03  4358.96  4364.30  4371.34
                             4394.78  4414.94  4468.40  4474.26  4490.39
                             5040.72

 Zero-point correction=                           0.156280 (Hartree/Particle)
 Thermal correction to Energy=                    0.166626
 Thermal correction to Enthalpy=                  0.167570
 Thermal correction to Gibbs Free Energy=         0.119567
 Sum of electronic and zero-point Energies=           -423.023063
 Sum of electronic and thermal Energies=              -423.012716
 Sum of electronic and thermal Enthalpies=            -423.011772
 Sum of electronic and thermal Free Energies=         -423.059775

                     E (Thermal)             CV                S
                      KCal/Mol        Cal/Mol-Kelvin    Cal/Mol-Kelvin
 Total                  104.560             36.027            101.031
 Electronic               0.000              0.000              0.000
 Translational            0.889              2.981             40.409
 Rotational               0.889              2.981             29.621
 Vibrational            102.782             30.065             31.002
 Vibration     1          0.593              1.984              5.946
 Vibration     2          0.600              1.961              3.832
 Vibration     3          0.604              1.949              3.454
 Vibration     4          0.611              1.926              2.995
 Vibration     5          0.622              1.892              2.553
 Vibration     6          0.643              1.823              2.030
 Vibration     7          0.658              1.778              1.797
 Vibration     8          0.670              1.741              1.642
 Vibration     9          0.720              1.596              1.212
 Vibration    10          0.732              1.562              1.137
 Vibration    11          0.758              1.491              0.999
 Vibration    12          0.885              1.183              0.586
 Vibration    13          0.934              1.079              0.489

 Optimization completed.
    -- Stationary point found.
 Normal termination of Gaussian 09 at Tue Jan 28 09:04:49 2020.
