 Gaussian 09, Revision D.01,
 Gaussian 09:  ES64L-G09RevD.01 24-Apr-2013

 -----------------------------
 # b3lyp 6-31G(2df,p) opt Freq
 -----------------------------

 -----
 titel
 -----
 Symbolic Z-matrix:
 Charge =  0 Multiplicity = 1

 SCF Done:  E(RB3LYP) =  -423.095046481     A.U. after   13 cycles
 Optimization completed.
    -- Stationary point found.
 Normal termination of Gaussian 09 at Tue Jan 28 09:13:33 2020.

 ----------------------------------------------------------------------
 #N Geom=AllCheck Guess=TCheck SCRF=Check GenChk RB3LYP/6-31G(2df,p) Fr
 eq
 ----------------------------------------------------------------------

 Structure from the checkpoint file:  "/scratch/puck/g09_eb293e5e-f7ae-47ff-8fe8-2cfa3395c0b5/Gau-17265.chk"
 -----
 titel
 -----
 Charge =  0 Multiplicity = 1

                         Standard orientation:
 ---------------------------------------------------------------------
 Center     Atomic      Atomic             Coordinates (Angstroms)
 Number     Number       Type             X           Y           Z
 ---------------------------------------------------------------------
      1          6           0       -2.264325   -1.036591    0.243458
      2          8           0       -1.081704   -1.221298   -0.522327
      3          6           0       -0.115654   -0.275952   -0.287125
      4          6           0       -0.135391    1.253631   -0.514765
      5          8           0       -0.978303    2.084537    0.247230
      6          6           0        1.298828    0.950637   -0.032901
      7          6           0        1.340372   -0.401272   -0.826678
      8          6           0        1.814071   -1.194992    0.408101
      9          6           0        0.835117   -0.152865    0.984831
     10          1           0       -2.717863   -0.057135    0.052347
     11          1           0       -2.959900   -1.824675   -0.051857
     12          1           0       -2.059703   -1.127307    1.320094
     13          1           0       -0.239141    1.581488   -1.553930
     14          1           0       -0.847918    1.874255    1.178593
     15          1           0        2.136370    1.630795    0.106556
     16          1           0        1.614990   -0.512168   -1.876049
     17          1           0        1.503225   -2.241836    0.462081
     18          1           0        2.866474   -1.087674    0.687763
     19          1           0        0.545403    0.002773    2.025658
 ---------------------------------------------------------------------

 SCF Done:  E(RB3LYP) =  -423.095046481     A.U. after    1 cycles

 The electronic state is 1-A.
 Alpha  occ. eigenvalues --  -19.14970 -19.14006 -10.24083 -10.23096 -10.22590
 Alpha  occ. eigenvalues --  -10.20048 -10.19962 -10.19782 -10.18452  -1.04753
 Alpha  occ. eigenvalues --   -1.02172  -0.93075  -0.73552  -0.70415  -0.63821
 Alpha  occ. eigenvalues --   -0.61534  -0.60873  -0.52557  -0.51842  -0.50069
 Alpha  occ. eigenvalues --   -0.46604  -0.45769  -0.43949  -0.42336  -0.39192
 Alpha  occ. eigenvalues --   -0.38278  -0.35760  -0.33593  -0.32485  -0.31473
 Alpha  occ. eigenvalues --   -0.30782  -0.29020  -0.26457  -0.23686
 Alpha virt. eigenvalues --    0.06293   0.10781   0.11392   0.11942   0.12817
 Alpha virt. eigenvalues --    0.13775   0.14607   0.15106   0.16238   0.16703
 Alpha virt. eigenvalues --    0.17504   0.18352   0.19237   0.20445   0.20805

 Mulliken charges:
               1
     1  C   -0.269966
     2  O   -0.297186
     3  C    0.411313
     4  C    0.064187
     5  O   -0.446112
     6  C   -0.102482
     7  C   -0.101925
     8  C   -0.272048
     9  C   -0.146047
    10  H    0.135265
    11  H    0.128572
    12  H    0.106160
    13  H    0.087056
    14  H    0.281700
    15  H    0.080609
    16  H    0.077139
    17  H    0.105053
    18  H    0.092329
    19  H    0.066381
 Sum of Mulliken charges =   0.00000

 Dipole moment (field-independent basis, Debye):
    X=              0.4115    Y=             -0.2599    Z=              1.3248  Tot=              1.4113
 Quadrupole moment (field-independent basis, Debye-Ang):
   XX=            -51.0885   YY=            -57.9799   ZZ=            -50.5790
   XY=              2.7956   XZ=             -2.1089   YZ=              0.0878

  Exact polarizability:  82.994  -0.982  74.115  -0.819  -1.668  68.794
 Approx polarizability: 112.731  -1.232 108.651  -1.030   0.499 110.045

                      1                      2                      3
                      A                      A                      A
 Frequencies --     84.4878               157.5367               173.7538
 Red. masses --      2.6138                 1.0976                 3.4142
 Frc consts  --      0.0110                 0.0160                 0.0607
 IR Inten    --      3.2625                 1.2546                 1.0872

                      4                      5                      6
                      A                      A                      A
 Frequencies --    209.5719               287.6762               299.9914
 Red. masses --      4.0108                 1.5849                 3.0058
 Frc consts  --      0.1038                 0.0773                 0.1594
 IR Inten    --      2.4788                37.0062                 8.4971

                      7                      8                      9
                      A                      A                      A
 Frequencies --    333.4959               414.7088               522.8739
 Red. masses --      1.8660                 3.5428                 2.6520
 Frc consts  --      0.1223                 0.3590                 0.4272
 IR Inten    --     38.3097                 2.0135                 7.1340

                     10                     11                     12
                      A                      A                      A
 Frequencies --    564.5886               624.2119               753.2767
 Red. masses --      4.0606                 4.0572                 3.8585
 Frc consts  --      0.7626                 0.9314                 1.2900
 IR Inten    --      2.4090                10.7561                11.9316

                     13                     14                     15
                      A                      A                      A
 Frequencies --    799.5614               849.8017               878.3650
 Red. masses --      3.7097                 2.3036                 1.9495
 Frc consts  --      1.3973                 0.9801                 0.8862
 IR Inten    --     10.6220                 7.7193                 1.2463

                     16                     17                     18
                      A                      A                      A
 Frequencies --    902.9864               922.8379               939.1988
 Red. masses --      1.9521                 1.5587                 2.0858
 Frc consts  --      0.9378                 0.7821                 1.0840
 IR Inten    --      2.8941                 0.2924                 1.9839

                     19                     20                     21
                      A                      A                      A
 Frequencies --    966.2211              1024.8788              1042.0946
 Red. masses --      2.1362                 2.0415                 1.6468
 Frc consts  --      1.1750                 1.2634                 1.0537
 IR Inten    --     16.6143                 5.5797                 9.7727

                     22                     23                     24
                      A                      A                      A
 Frequencies --   1071.8543              1078.8735              1095.6879
 Red. masses --      3.6772                 2.7507                 1.8198
 Frc consts  --      2.4891                 1.8864                 1.2872
 IR Inten    --    121.1446                16.6131                 2.2040

                     25                     26                     27
                      A                      A                      A
 Frequencies --   1105.0585              1143.9193              1152.6638
 Red. masses --      2.8197                 1.7299                 1.4436
 Frc consts  --      2.0287                 1.3337                 1.1301
 IR Inten    --     44.0432                 3.3260                 1.5103

                     28                     29                     30
                      A                      A                      A
 Frequencies --   1166.8772              1184.1871              1210.3021
 Red. masses --      1.5386                 1.2810                 1.7822
 Frc consts  --      1.2343                 1.0583                 1.5382
 IR Inten    --     26.1354                 2.6691                 7.3285

                     31                     32                     33
                      A                      A                      A
 Frequencies --   1221.5287              1243.4276              1250.3274
 Red. masses --      1.5438                 1.5559                 2.0109
 Frc consts  --      1.3572                 1.4173                 1.8522
 IR Inten    --      2.2523                 6.9906                39.6392

                     34                     35                     36
                      A                      A                      A
 Frequencies --   1284.3225              1288.6251              1345.9343
 Red. masses --      1.7494                 2.0952                 2.4571
 Frc consts  --      1.7002                 2.0499                 2.6225
 IR Inten    --     55.5087                17.8347               140.9358

                     37                     38                     39
                      A                      A                      A
 Frequencies --   1448.1443              1488.0551              1488.2550
 Red. masses --      1.3761                 1.1442                 1.1355
 Frc consts  --      1.7003                 1.4927                 1.4818
 IR Inten    --    104.0634                 9.4185                12.1726

                     40                     41                     42
                      A                      A                      A
 Frequencies --   1507.8237              1510.0413              2997.3289
 Red. masses --      1.1361                 1.0571                 1.0403
 Frc consts  --      1.5218                 1.4201                 5.5064
 IR Inten    --      4.4155                 7.1564                45.8984

                     43                     44                     45
                      A                      A                      A
 Frequencies --   3047.3891              3067.4319              3071.1233
 Red. masses --      1.0548                 1.0954                 1.0863
 Frc consts  --      5.7715                 6.0728                 6.0367
 IR Inten    --     58.7504                22.5971                44.9938

                     46                     47                     48
                      A                      A                      A
 Frequencies --   3090.5119              3107.2580              3112.1735
 Red. masses --      1.0898                 1.1094                 1.0901
 Frc consts  --      6.1326                 6.3109                 6.2211
 IR Inten    --     54.6744                29.0124                38.5040

                     49                     50                     51
                      A                      A                      A
 Frequencies --   3128.0317              3145.2753              3801.9745
 Red. masses --      1.1011                 1.0938                 1.0654
 Frc consts  --      6.3478                 6.3752                 9.0738
 IR Inten    --     26.1686                28.3660                 9.6052

 - Thermochemistry -
 -------------------
 Temperature   298.150 Kelvin.  Pressure   1.00000 Atm.
 Atom     1 has atomic number  6 and mass  12.00000

 Molecular mass:   126.06808 amu.
 Principal axes and moments of inertia in atomic units:
                           1         2         3
     Eigenvalues --   792.75737 967.987381432.64602
           X            0.99906   0.04123  -0.01332
           Y           -0.04146   0.99898  -0.01786
           Z            0.01257   0.01839   0.99975
 This molecule is an asymmetric top.
 Rotational symmetry number  1.
 Warning -- assumption of classical behavior for rotation
           may cause significant error
 Rotational temperatures (Kelvin)      0.10926     0.08948     0.06046
 Rotational constants (GHZ):           2.27654     1.86443     1.25973
 Zero-point vibrational energy     416339.5 (Joules/Mol)
                                   99.50752 (Kcal/Mol)
 Warning -- explicit consideration of  10 degrees of freedom as
           vibrations may cause significant error
 Vibrational temperatures:    121.56   226.66   249.99   301.53   413.90
          (Kelvin)            431.62   479.83   596.67   752.30   812.32
                              898.10  1083.80  1150.39  1222.67  1263.77
                             1299.19  1327.76  1351.30  1390.17  1474.57
                             1499.34  1542.16  1552.26  1576.45  1589.93
                             1645.84  1658.42  1678.87  1703.78  1741.35
                             1757.51  1789.01  1798.94  1847.85  1854.04
                             1936.50  2083.55  2140.98  2141.26  2169.42
                             2172.61  4312.48  4384.51  4413.34  4418.66
                             4446.55  4470.65  4477.72  4500.53  4525.34
                             5470.19

 Zero-point correction=                           0.158575 (Hartree/Particle)
 Thermal correction to Energy=                    0.166871
 Thermal correction to Enthalpy=                  0.167815
 Thermal correction to Gibbs Free Energy=         0.125782
 Sum of electronic and zero-point Energies=           -422.936471
 Sum of electronic and thermal Energies=              -422.928176
 Sum of electronic and thermal Enthalpies=            -422.927231
 Sum of electronic and thermal Free Energies=         -422.969264

                     E (Thermal)             CV                S
                      KCal/Mol        Cal/Mol-Kelvin    Cal/Mol-Kelvin
 Total                  104.713             31.880             88.466
 Electronic               0.000              0.000              0.000
 Translational            0.889              2.981             40.409
 Rotational               0.889              2.981             28.488
 Vibrational            102.936             25.918             19.570
 Vibration     1          0.601              1.960              3.784
 Vibration     2          0.621              1.894              2.579
 Vibration     3          0.627              1.875              2.394
 Vibration     4          0.642              1.826              2.047
 Vibration     5          0.685              1.697              1.488
 Vibration     6          0.693              1.674              1.417
 Vibration     7          0.715              1.609              1.243
 Vibration     8          0.778              1.438              0.910
 Vibration     9          0.878              1.199              0.603
 Vibration    10          0.920              1.108              0.515

 Normal termination of Gaussian 09 at Tue Jan 28 09:57:51 2020.
