 Gaussian 09, Revision D.01,
 Gaussian 09:  ES64L-G09RevD.01 24-Apr-2013

 -----------------------------
 # b3lyp 6-31G(2df,p) opt Freq
 -----------------------------

 -----
 titel
 -----
 Symbolic Z-matrix:
 Charge =  0 Multiplicity = 1

 SCF Done:  E(RB3LYP) =  -423.197571771     A.U. after   14 cycles
 Optimization completed.
    -- Stationary point found.
 Normal termination of Gaussian 09 at Mon Jan 27 18:07:53 2020.

 ----------------------------------------------------------------------
 #N Geom=AllCheck Guess=TCheck SCRF=Check GenChk RB3LYP/6-31G(2df,p) Fr
 eq
 ----------------------------------------------------------------------

 Structure from the checkpoint file:  "/scratch/puck/g09_ad384538-6c9d-49e5-99ac-3b05977f5972/Gau-17046.chk"
 -----
 titel
 -----
 Charge =  0 Multiplicity = 1

                         Standard orientation:
 ---------------------------------------------------------------------
 Center     Atomic      Atomic             Coordinates (Angstroms)
 Number     Number       Type             X           Y           Z
 ---------------------------------------------------------------------
      1          6           0        2.238765   -0.604241   -0.477156
      2          6           0        0.824968   -0.357576    0.004025
      3          6           0        0.262959   -1.275342    1.110425
      4          6           0       -0.283634   -1.357992   -0.278009
      5          8           0       -1.574755   -0.944109   -0.607545
      6          6           0       -2.025145    0.203647    0.095709
      7          6           0       -1.078380    1.392340   -0.085738
      8          6           0        0.411648    1.079109    0.073458
      9          8           0        1.225127    1.973611    0.151676
     10          1           0        2.390135   -0.195408   -1.481161
     11          1           0        2.960339   -0.121836    0.187448
     12          1           0        2.457513   -1.675978   -0.508346
     13          1           0        0.923783   -2.066114    1.448329
     14          1           0       -0.327584   -0.831406    1.902030
     15          1           0       -0.022762   -2.222962   -0.878743
     16          1           0       -3.012838    0.430624   -0.313587
     17          1           0       -2.163444   -0.027200    1.161676
     18          1           0       -1.172586    1.777677   -1.109750
     19          1           0       -1.342623    2.216916    0.582775
 ---------------------------------------------------------------------

 SCF Done:  E(RB3LYP) =  -423.197571771     A.U. after    1 cycles

 The electronic state is 1-A.
 Alpha  occ. eigenvalues --  -19.15672 -19.12257 -10.26792 -10.24968 -10.24202
 Alpha  occ. eigenvalues --  -10.20566 -10.20105 -10.19513 -10.18144  -1.05419
 Alpha  occ. eigenvalues --   -1.03402  -0.86905  -0.78230  -0.71903  -0.67592
 Alpha  occ. eigenvalues --   -0.62877  -0.59014  -0.53343  -0.50762  -0.48827
 Alpha  occ. eigenvalues --   -0.46619  -0.44303  -0.42890  -0.41957  -0.41308
 Alpha  occ. eigenvalues --   -0.40852  -0.39058  -0.37685  -0.35404  -0.34553
 Alpha  occ. eigenvalues --   -0.33988  -0.28543  -0.24837  -0.23757
 Alpha virt. eigenvalues --   -0.01533   0.08239   0.08770   0.10931   0.11900
 Alpha virt. eigenvalues --    0.13729   0.13974   0.15184   0.15993   0.16547
 Alpha virt. eigenvalues --    0.18188   0.18529   0.20032   0.21364   0.22807

 Mulliken charges:
               1
     1  C   -0.461948
     2  C    0.173448
     3  C   -0.371181
     4  C    0.090389
     5  O   -0.251960
     6  C   -0.112659
     7  C   -0.307902
     8  C    0.326362
     9  O   -0.322553
    10  H    0.127397
    11  H    0.140193
    12  H    0.108337
    13  H    0.126390
    14  H    0.128188
    15  H    0.111675
    16  H    0.119172
    17  H    0.103202
    18  H    0.142988
    19  H    0.130461
 Sum of Mulliken charges =   0.00000

 Dipole moment (field-independent basis, Debye):
    X=             -1.1996    Y=             -1.5057    Z=              0.5418  Tot=              2.0000
 Quadrupole moment (field-independent basis, Debye-Ang):
   XX=            -54.0235   YY=            -56.8669   ZZ=            -51.9129
   XY=             -8.3395   XZ=             -1.9941   YZ=             -1.3670

  Exact polarizability:  83.440  -2.219  79.480  -1.148  -1.865  62.903
 Approx polarizability: 114.838   6.880 119.894   1.325  -1.090  99.663

                      1                      2                      3
                      A                      A                      A
 Frequencies --     64.4376               160.4032               194.1507
 Red. masses --      3.5614                 1.4665                 1.4537
 Frc consts  --      0.0087                 0.0222                 0.0323
 IR Inten    --      7.8101                 0.0721                 0.0692

                      4                      5                      6
                      A                      A                      A
 Frequencies --    264.3534               287.3988               331.7260
 Red. masses --      2.9708                 2.9947                 2.6625
 Frc consts  --      0.1223                 0.1457                 0.1726
 IR Inten    --      2.0743                 1.4065                 2.9579

                      7                      8                      9
                      A                      A                      A
 Frequencies --    387.0771               415.8197               489.3645
 Red. masses --      4.9519                 3.2090                 3.0928
 Frc consts  --      0.4371                 0.3269                 0.4364
 IR Inten    --      2.2527                 5.9038                 4.8140

                     10                     11                     12
                      A                      A                      A
 Frequencies --    515.1207               593.7383               646.3088
 Red. masses --      2.8207                 2.6972                 3.3130
 Frc consts  --      0.4410                 0.5602                 0.8154
 IR Inten    --      4.5853                 1.4186                 7.1081

                     13                     14                     15
                      A                      A                      A
 Frequencies --    680.1253               775.0347               834.4266
 Red. masses --      3.5247                 2.7399                 1.9328
 Frc consts  --      0.9606                 0.9697                 0.7929
 IR Inten    --      6.6949                 8.0762                12.2467

                     16                     17                     18
                      A                      A                      A
 Frequencies --    855.5734               892.7534               934.7128
 Red. masses --      3.2512                 1.7795                 2.2554
 Frc consts  --      1.4022                 0.8356                 1.1610
 IR Inten    --     17.7367                17.0876                19.7405

                     19                     20                     21
                      A                      A                      A
 Frequencies --    952.1147              1019.5632              1034.5245
 Red. masses --      1.4862                 1.5292                 1.6609
 Frc consts  --      0.7938                 0.9366                 1.0473
 IR Inten    --      7.4426                 2.1492                 6.1198

                     22                     23                     24
                      A                      A                      A
 Frequencies --   1055.0657              1063.8762              1111.0247
 Red. masses --      1.9669                 2.4023                 1.9041
 Frc consts  --      1.2900                 1.6020                 1.3848
 IR Inten    --     17.6592                 3.2801                 1.0752

                     25                     26                     27
                      A                      A                      A
 Frequencies --   1124.2338              1129.4791              1203.9902
 Red. masses --      1.6494                 2.1598                 3.5369
 Frc consts  --      1.2283                 1.6234                 3.0207
 IR Inten    --      3.7915                29.1060                95.2525

                     28                     29                     30
                      A                      A                      A
 Frequencies --   1231.4870              1274.0382              1291.8271
 Red. masses --      1.3906                 1.3849                 1.9548
 Frc consts  --      1.2425                 1.3244                 1.9221
 IR Inten    --     13.2801                10.3407                37.6230

                     31                     32                     33
                      A                      A                      A
 Frequencies --   1335.3181              1345.5320              1393.9050
 Red. masses --      2.4983                 1.5094                 1.4890
 Frc consts  --      2.6246                 1.6101                 1.7046
 IR Inten    --     25.8011                 6.4068                36.5858

                     34                     35                     36
                      A                      A                      A
 Frequencies --   1414.7195              1424.5084              1439.8261
 Red. masses --      1.2357                 1.3826                 1.0854
 Frc consts  --      1.4572                 1.6530                 1.3257
 IR Inten    --      0.6496                 8.3190                 3.1548

                     37                     38                     39
                      A                      A                      A
 Frequencies --   1479.7825              1483.7913              1498.1654
 Red. masses --      1.3994                 1.0492                 1.0630
 Frc consts  --      1.8055                 1.3610                 1.4057
 IR Inten    --     34.8425                 1.6713                10.3307

                     40                     41                     42
                      A                      A                      A
 Frequencies --   1520.8011              1790.0154              3002.3395
 Red. masses --      1.0828                12.4063                 1.0710
 Frc consts  --      1.4756                23.4209                 5.6878
 IR Inten    --      2.9615               201.2873                42.6117

                     43                     44                     45
                      A                      A                      A
 Frequencies --   3033.4257              3039.3238              3092.4181
 Red. masses --      1.0654                 1.0353                 1.0916
 Frc consts  --      5.7759                 5.6349                 6.1507
 IR Inten    --     10.2614                24.4837                30.4979

                     46                     47                     48
                      A                      A                      A
 Frequencies --   3098.3540              3106.7198              3118.3322
 Red. masses --      1.0971                 1.1018                 1.1010
 Frc consts  --      6.2053                 6.2652                 6.3078
 IR Inten    --      8.4435                17.8812                12.5648

                     49                     50                     51
                      A                      A                      A
 Frequencies --   3144.5265              3168.6231              3230.2212
 Red. masses --      1.0554                 1.0906                 1.1148
 Frc consts  --      6.1487                 6.4513                 6.8533
 IR Inten    --      6.9628                13.2827                 4.2132

 - Thermochemistry -
 -------------------
 Temperature   298.150 Kelvin.  Pressure   1.00000 Atm.
 Atom     1 has atomic number  6 and mass  12.00000

 Molecular mass:   126.06808 amu.
 Principal axes and moments of inertia in atomic units:
                           1         2         3
     Eigenvalues --   775.37295 991.205871502.74147
           X            0.97599  -0.21675  -0.02152
           Y            0.21648   0.97618  -0.01419
           Z            0.02409   0.00919   0.99967
 This molecule is an asymmetric top.
 Rotational symmetry number  1.
 Warning -- assumption of classical behavior for rotation
           may cause significant error
 Rotational temperatures (Kelvin)      0.11171     0.08738     0.05764
 Rotational constants (GHZ):           2.32758     1.82075     1.20097
 Zero-point vibrational energy     418539.8 (Joules/Mol)
                                  100.03342 (Kcal/Mol)
 Warning -- explicit consideration of  11 degrees of freedom as
           vibrations may cause significant error
 Vibrational temperatures:     92.71   230.78   279.34   380.35   413.50
          (Kelvin)            477.28   556.92   598.27   704.09   741.14
                              854.26   929.89   978.55  1115.10  1200.55
                             1230.98  1284.47  1344.84  1369.88  1466.92
                             1488.45  1518.00  1530.68  1598.51  1617.52
                             1625.07  1732.27  1771.83  1833.05  1858.65
                             1921.22  1935.92  2005.52  2035.46  2049.55
                             2071.59  2129.07  2134.84  2155.52  2188.09
                             2575.43  4319.69  4364.42  4372.90  4449.29
                             4457.83  4469.87  4486.58  4524.27  4558.94
                             4647.56

 Zero-point correction=                           0.159413 (Hartree/Particle)
 Thermal correction to Energy=                    0.167696
 Thermal correction to Enthalpy=                  0.168640
 Thermal correction to Gibbs Free Energy=         0.126591
 Sum of electronic and zero-point Energies=           -423.038158
 Sum of electronic and thermal Energies=              -423.029876
 Sum of electronic and thermal Enthalpies=            -423.028931
 Sum of electronic and thermal Free Energies=         -423.070981

                     E (Thermal)             CV                S
                      KCal/Mol        Cal/Mol-Kelvin    Cal/Mol-Kelvin
 Total                  105.231             32.047             88.501
 Electronic               0.000              0.000              0.000
 Translational            0.889              2.981             40.409
 Rotational               0.889              2.981             28.537
 Vibrational            103.454             26.086             19.556
 Vibration     1          0.597              1.971              4.316
 Vibration     2          0.622              1.891              2.545
 Vibration     3          0.635              1.848              2.188
 Vibration     4          0.671              1.738              1.633
 Vibration     5          0.685              1.697              1.489
 Vibration     6          0.714              1.612              1.252
 Vibration     7          0.756              1.498              1.011
 Vibration     8          0.779              1.436              0.906
 Vibration     9          0.845              1.274              0.685
 Vibration    10          0.870              1.216              0.621
 Vibration    11          0.951              1.045              0.461

 Normal termination of Gaussian 09 at Mon Jan 27 19:59:57 2020.
