 Gaussian 09, Revision D.01,
 Gaussian 09:  ES64L-G09RevD.01 24-Apr-2013

 -----------------------------
 # b3lyp 6-31G(2df,p) opt Freq
 -----------------------------

 -----
 titel
 -----
 Symbolic Z-matrix:
 Charge =  0 Multiplicity = 1

 SCF Done:  E(RB3LYP) =  -423.124735553     A.U. after   14 cycles
 Optimization completed.
    -- Stationary point found.
 Normal termination of Gaussian 09 at Tue Jan 28 08:08:24 2020.

 ----------------------------------------------------------------------
 #N Geom=AllCheck Guess=TCheck SCRF=Check GenChk RB3LYP/6-31G(2df,p) Fr
 eq
 ----------------------------------------------------------------------

 Structure from the checkpoint file:  "/scratch/puck/g09_97a7a3c7-93a5-4451-b213-ee54c564f0b0/Gau-127763.chk"
 -----
 titel
 -----
 Charge =  0 Multiplicity = 1

                         Standard orientation:
 ---------------------------------------------------------------------
 Center     Atomic      Atomic             Coordinates (Angstroms)
 Number     Number       Type             X           Y           Z
 ---------------------------------------------------------------------
      1          8           0        3.643779    0.967540    0.589656
      2          6           0        3.282617    0.078981   -0.460410
      3          6           0        1.934569   -0.471007   -0.320712
      4          6           0        0.835192   -0.937065   -0.157416
      5          6           0       -0.515406   -1.460968    0.034841
      6          6           0       -1.496016   -0.402100    0.516509
      7          6           0       -2.983542   -0.558962    0.272053
      8          6           0       -2.207130    0.488386   -0.467465
      9          8           0       -2.480356    1.815456   -0.129835
     10          1           0        3.475690    0.510757    1.420464
     11          1           0        3.360090    0.665645   -1.382714
     12          1           0        4.006232   -0.747199   -0.550948
     13          1           0       -0.876386   -1.886246   -0.911218
     14          1           0       -0.491921   -2.298221    0.745475
     15          1           0       -1.224639    0.078602    1.451660
     16          1           0       -3.334495   -1.426023   -0.277954
     17          1           0       -3.654236   -0.207005    1.047285
     18          1           0       -2.012171    0.310949   -1.526289
     19          1           0       -1.657255    2.311180   -0.198722
 ---------------------------------------------------------------------

 SCF Done:  E(RB3LYP) =  -423.124735553     A.U. after    1 cycles

 The electronic state is 1-A.
 Alpha  occ. eigenvalues --  -19.14091 -19.14030 -10.25116 -10.23476 -10.21384
 Alpha  occ. eigenvalues --  -10.19574 -10.18565 -10.18058 -10.17364  -1.02638
 Alpha  occ. eigenvalues --   -1.02172  -0.85705  -0.78118  -0.73671  -0.67203
 Alpha  occ. eigenvalues --   -0.59640  -0.58890  -0.53378  -0.52682  -0.48366
 Alpha  occ. eigenvalues --   -0.47557  -0.45943  -0.44438  -0.43317  -0.41874
 Alpha  occ. eigenvalues --   -0.38454  -0.36719  -0.35460  -0.32938  -0.28811
 Alpha  occ. eigenvalues --   -0.28439  -0.26143  -0.25542  -0.25111
 Alpha virt. eigenvalues --    0.03080   0.05278   0.08737   0.09675   0.10508
 Alpha virt. eigenvalues --    0.11227   0.13002   0.13705   0.15054   0.16242
 Alpha virt. eigenvalues --    0.16715   0.19134   0.19473   0.21518   0.23734

 Mulliken charges:
               1
     1  O   -0.403036
     2  C   -0.190552
     3  C    0.070464
     4  C    0.039852
     5  C   -0.383440
     6  C   -0.023241
     7  C   -0.311631
     8  C    0.121388
     9  O   -0.424120
    10  H    0.286181
    11  H    0.137185
    12  H    0.116639
    13  H    0.127062
    14  H    0.129661
    15  H    0.097771
    16  H    0.111125
    17  H    0.124901
    18  H    0.084594
    19  H    0.289199
 Sum of Mulliken charges =   0.00000

 Dipole moment (field-independent basis, Debye):
    X=              0.3369    Y=             -1.6864    Z=              0.1096  Tot=              1.7232
 Quadrupole moment (field-independent basis, Debye-Ang):
   XX=            -59.3889   YY=            -53.7052   ZZ=            -49.5520
   XY=              0.6730   XZ=              0.3984   YZ=             -0.8450

  Exact polarizability: 107.999  10.045  71.779  -3.567  -0.643  62.999
 Approx polarizability: 143.723  21.289 105.776  -5.617  -1.974  94.458

                      1                      2                      3
                      A                      A                      A
 Frequencies --     19.6099                51.6799                68.2497
 Red. masses --      3.6300                 3.3043                 3.6484
 Frc consts  --      0.0008                 0.0052                 0.0100
 IR Inten    --      1.0468                 0.7033                 0.5517

                      4                      5                      6
                      A                      A                      A
 Frequencies --    154.1050               184.5567               272.2663
 Red. masses --      3.4254                 3.3902                 2.6985
 Frc consts  --      0.0479                 0.0680                 0.1179
 IR Inten    --      2.2062                 6.1022                 2.6921

                      7                      8                      9
                      A                      A                      A
 Frequencies --    292.7801               302.6562               335.1216
 Red. masses --      2.4292                 1.5928                 1.1783
 Frc consts  --      0.1227                 0.0860                 0.0780
 IR Inten    --     51.4257                67.6443                72.2981

                     10                     11                     12
                      A                      A                      A
 Frequencies --    370.9789               401.2623               439.9772
 Red. masses --      2.6655                 3.9227                 2.4021
 Frc consts  --      0.2161                 0.3721                 0.2740
 IR Inten    --     38.6960                18.9037                 3.3051

                     13                     14                     15
                      A                      A                      A
 Frequencies --    479.5893               587.6854               762.2494
 Red. masses --      3.7029                 7.2012                 2.9228
 Frc consts  --      0.5018                 1.4654                 1.0005
 IR Inten    --     10.5736                 5.9029                 9.9262

                     16                     17                     18
                      A                      A                      A
 Frequencies --    801.5871               841.1304               883.4325
 Red. masses --      1.9919                 2.0914                 1.5366
 Frc consts  --      0.7541                 0.8718                 0.7066
 IR Inten    --      6.9832                 7.9979                 7.0862

                     19                     20                     21
                      A                      A                      A
 Frequencies --    941.3618               976.8142               989.6659
 Red. masses --      2.2590                 2.7219                 1.6294
 Frc consts  --      1.1795                 1.5302                 0.9403
 IR Inten    --     14.6423                 8.4006                34.7684

                     22                     23                     24
                      A                      A                      A
 Frequencies --   1040.0932              1045.1821              1092.9443
 Red. masses --      2.2335                 2.1821                 1.7534
 Frc consts  --      1.4236                 1.4045                 1.2340
 IR Inten    --     54.9385                29.9687                 7.3137

                     25                     26                     27
                      A                      A                      A
 Frequencies --   1111.4416              1130.7140              1152.3959
 Red. masses --      1.2145                 1.7078                 3.5126
 Frc consts  --      0.8839                 1.2864                 2.7484
 IR Inten    --      3.0879                 2.3217                12.1218

                     28                     29                     30
                      A                      A                      A
 Frequencies --   1191.2425              1214.3660              1222.0569
 Red. masses --      2.2703                 1.0906                 1.6535
 Frc consts  --      1.8982                 0.9476                 1.4549
 IR Inten    --     19.2161                11.8009                53.3010

                     31                     32                     33
                      A                      A                      A
 Frequencies --   1245.4423              1304.1272              1321.1175
 Red. masses --      1.3281                 1.1945                 1.3953
 Frc consts  --      1.2137                 1.1970                 1.4349
 IR Inten    --      7.2201                78.0804                23.6772

                     34                     35                     36
                      A                      A                      A
 Frequencies --   1358.6162              1364.0493              1419.6638
 Red. masses --      1.2166                 1.4317                 1.2350
 Frc consts  --      1.3231                 1.5695                 1.4665
 IR Inten    --      5.3524                 9.2411                91.7913

                     37                     38                     39
                      A                      A                      A
 Frequencies --   1437.8468              1470.4521              1494.5314
 Red. masses --      1.2917                 1.0909                 1.0911
 Frc consts  --      1.5734                 1.3898                 1.4358
 IR Inten    --      1.1405                 3.6849                 0.7526

                     40                     41                     42
                      A                      A                      A
 Frequencies --   1495.9029              2360.6972              2974.1141
 Red. masses --      1.7096                11.8547                 1.0716
 Frc consts  --      2.2540                38.9245                 5.5845
 IR Inten    --     16.0466                10.0053                55.9331

                     43                     44                     45
                      A                      A                      A
 Frequencies --   3011.0643              3039.3130              3059.5513
 Red. masses --      1.0591                 1.1001                 1.0882
 Frc consts  --      5.6577                 5.9875                 6.0018
 IR Inten    --     24.1321                11.3397                19.8478

                     46                     47                     48
                      A                      A                      A
 Frequencies --   3087.4366              3135.6780              3158.4045
 Red. masses --      1.0870                 1.0554                 1.0882
 Frc consts  --      6.1050                 6.1139                 6.3960
 IR Inten    --     31.8699                10.9973                 7.6454

                     49                     50                     51
                      A                      A                      A
 Frequencies --   3226.5842              3802.3799              3816.2885
 Red. masses --      1.1160                 1.0661                 1.0662
 Frc consts  --      6.8456                 9.0816                 9.1492
 IR Inten    --      6.2125                18.2006                19.5402

 - Thermochemistry -
 -------------------
 Temperature   298.150 Kelvin.  Pressure   1.00000 Atm.
 Atom     1 has atomic number  8 and mass  15.99491

 Molecular mass:   126.06808 amu.
 Principal axes and moments of inertia in atomic units:
                           1         2         3
     Eigenvalues --   574.151032822.670173196.99553
           X            0.99996   0.00756  -0.00374
           Y           -0.00757   0.99996  -0.00407
           Z            0.00370   0.00410   0.99998
 This molecule is an asymmetric top.
 Rotational symmetry number  1.
 Warning -- assumption of classical behavior for rotation
           may cause significant error
 Rotational temperatures (Kelvin)      0.15086     0.03069     0.02709
 Rotational constants (GHZ):           3.14332     0.63937     0.56451
 Zero-point vibrational energy     412355.5 (Joules/Mol)
                                   98.55533 (Kcal/Mol)
 Warning -- explicit consideration of  14 degrees of freedom as
           vibrations may cause significant error
 Vibrational temperatures:     28.21    74.36    98.20   221.72   265.54
          (Kelvin)            391.73   421.24   435.45   482.16   533.76
                              577.33   633.03   690.02   845.55  1096.71
                             1153.30  1210.20  1271.06  1354.41  1405.42
                             1423.91  1496.46  1503.78  1572.50  1599.11
                             1626.84  1658.04  1713.93  1747.20  1758.27
                             1791.91  1876.35  1900.79  1954.74  1962.56
                             2042.58  2068.74  2115.65  2150.29  2152.27
                             3396.51  4279.08  4332.24  4372.89  4402.01
                             4442.13  4511.54  4544.23  4642.33  5470.77
                             5490.78

 Zero-point correction=                           0.157058 (Hartree/Particle)
 Thermal correction to Energy=                    0.167349
 Thermal correction to Enthalpy=                  0.168293
 Thermal correction to Gibbs Free Energy=         0.119600
 Sum of electronic and zero-point Energies=           -422.967678
 Sum of electronic and thermal Energies=              -422.957387
 Sum of electronic and thermal Enthalpies=            -422.956443
 Sum of electronic and thermal Free Energies=         -423.005135

                     E (Thermal)             CV                S
                      KCal/Mol        Cal/Mol-Kelvin    Cal/Mol-Kelvin
 Total                  105.013             36.229            102.482
 Electronic               0.000              0.000              0.000
 Translational            0.889              2.981             40.409
 Rotational               0.889              2.981             30.028
 Vibrational            103.235             30.268             32.046
 Vibration     1          0.593              1.986              6.673
 Vibration     2          0.596              1.977              4.752
 Vibration     3          0.598              1.969              4.203
 Vibration     4          0.620              1.898              2.621
 Vibration     5          0.631              1.861              2.282
 Vibration     6          0.675              1.724              1.582
 Vibration     7          0.688              1.687              1.458
 Vibration     8          0.694              1.669              1.402
 Vibration     9          0.716              1.605              1.235
 Vibration    10          0.743              1.532              1.076
 Vibration    11          0.767              1.467              0.958
 Vibration    12          0.800              1.383              0.827
 Vibration    13          0.836              1.295              0.711
 Vibration    14          0.945              1.058              0.471

 Normal termination of Gaussian 09 at Tue Jan 28 08:41:00 2020.
