 Gaussian 09, Revision D.01,
 Gaussian 09:  ES64L-G09RevD.01 24-Apr-2013

 -----------------------------
 # b3lyp 6-31G(2df,p) opt Freq
 -----------------------------

 -----
 titel
 -----
 Symbolic Z-matrix:
 Charge =  0 Multiplicity = 1

 SCF Done:  E(RB3LYP) =  -423.199729532     A.U. after   14 cycles
 Optimization completed.
    -- Stationary point found.
 Normal termination of Gaussian 09 at Mon Jan 27 15:53:18 2020.

 ----------------------------------------------------------------------
 #N Geom=AllCheck Guess=TCheck SCRF=Check GenChk RB3LYP/6-31G(2df,p) Fr
 eq
 ----------------------------------------------------------------------

 Structure from the checkpoint file:  "/scratch/puck/g09_179752e3-0f48-47f9-b0c0-96c36130444f/Gau-54281.chk"
 -----
 titel
 -----
 Charge =  0 Multiplicity = 1

                         Standard orientation:
 ---------------------------------------------------------------------
 Center     Atomic      Atomic             Coordinates (Angstroms)
 Number     Number       Type             X           Y           Z
 ---------------------------------------------------------------------
      1          6           0       -0.689358   -1.691760   -0.962675
      2          6           0       -0.874012   -0.544792    0.012611
      3          6           0       -2.248714   -0.510469    0.661464
      4          6           0        0.253220   -0.101342    0.989405
      5          6           0        1.562850   -0.137335    0.263548
      6          8           0        2.669733   -0.533107    0.437185
      7          8           0        1.088486    0.570432   -0.837036
      8          6           0       -0.197644    0.776586   -0.166688
      9          6           0       -0.754762    2.157883   -0.264666
     10          1           0       -0.765285   -2.652739   -0.443451
     11          1           0       -1.475412   -1.663101   -1.725662
     12          1           0        0.273407   -1.647678   -1.473042
     13          1           0       -2.343788    0.291679    1.398541
     14          1           0       -3.028096   -0.371495   -0.095572
     15          1           0       -2.447785   -1.457317    1.174083
     16          1           0        0.103312   -0.033733    2.057733
     17          1           0       -0.032266    2.892445    0.102541
     18          1           0       -0.983335    2.398569   -1.308576
     19          1           0       -1.675983    2.252141    0.314215
 ---------------------------------------------------------------------

 SCF Done:  E(RB3LYP) =  -423.199729532     A.U. after    1 cycles

 The electronic state is 1-A.
 Alpha  occ. eigenvalues --  -19.17095 -19.13047 -10.30536 -10.26486 -10.22898
 Alpha  occ. eigenvalues --  -10.20935 -10.20134 -10.19806 -10.18582  -1.10297
 Alpha  occ. eigenvalues --   -1.03071  -0.87143  -0.75905  -0.74371  -0.70452
 Alpha  occ. eigenvalues --   -0.63388  -0.56171  -0.53769  -0.50382  -0.48589
 Alpha  occ. eigenvalues --   -0.46975  -0.44699  -0.42316  -0.41882  -0.41728
 Alpha  occ. eigenvalues --   -0.40315  -0.40029  -0.39811  -0.37413  -0.35999
 Alpha  occ. eigenvalues --   -0.33201  -0.29121  -0.27395  -0.26553
 Alpha virt. eigenvalues --    0.00586   0.07256   0.09263   0.10883   0.11688
 Alpha virt. eigenvalues --    0.12830   0.13191   0.14595   0.15592   0.15781
 Alpha virt. eigenvalues --    0.16761   0.17666   0.19560   0.20087   0.20265

 Mulliken charges:
               1
     1  C   -0.464611
     2  C    0.240021
     3  C   -0.458933
     4  C   -0.378612
     5  C    0.458260
     6  O   -0.333357
     7  O   -0.294855
     8  C    0.413027
     9  C   -0.493370
    10  H    0.124625
    11  H    0.120136
    12  H    0.150149
    13  H    0.121608
    14  H    0.127980
    15  H    0.131537
    16  H    0.118744
    17  H    0.141760
    18  H    0.142217
    19  H    0.133672
 Sum of Mulliken charges =   0.00000

 Dipole moment (field-independent basis, Debye):
    X=             -4.4568    Y=              0.8032    Z=              0.7051  Tot=              4.5832
 Quadrupole moment (field-independent basis, Debye-Ang):
   XX=            -61.6345   YY=            -50.7961   ZZ=            -52.6021
   XY=              1.4082   XZ=             -0.2319   YZ=              1.1931

  Exact polarizability:  87.726  -1.392  75.355   2.346  -1.283  66.224
 Approx polarizability: 129.773  -5.355 105.242   6.554  -6.696 105.077

                      1                      2                      3
                      A                      A                      A
 Frequencies --    129.3205               177.8428               191.9439
 Red. masses --      5.7931                 2.1111                 1.1357
 Frc consts  --      0.0571                 0.0393                 0.0247
 IR Inten    --      1.8169                 0.3814                 0.1115

                      4                      5                      6
                      A                      A                      A
 Frequencies --    194.0739               198.1930               263.3283
 Red. masses --      1.1268                 1.3598                 1.5901
 Frc consts  --      0.0250                 0.0315                 0.0650
 IR Inten    --      0.0713                 0.4516                 0.6745

                      7                      8                      9
                      A                      A                      A
 Frequencies --    289.5339               323.5260               354.2325
 Red. masses --      3.1048                 3.2367                 2.3976
 Frc consts  --      0.1534                 0.1996                 0.1773
 IR Inten    --      0.1219                 2.2569                 0.3687

                     10                     11                     12
                      A                      A                      A
 Frequencies --    453.4324               503.9167               513.8803
 Red. masses --      3.1692                 3.7034                 4.4621
 Frc consts  --      0.3839                 0.5541                 0.6942
 IR Inten    --      0.4253                 2.0164                 2.2130

                     13                     14                     15
                      A                      A                      A
 Frequencies --    616.1635               667.8802               725.3973
 Red. masses --      4.2666                 4.5807                 3.9152
 Frc consts  --      0.9544                 1.2039                 1.2138
 IR Inten    --      1.4979                 1.1300                 0.4381

                     16                     17                     18
                      A                      A                      A
 Frequencies --    796.5839               852.2923               887.6419
 Red. masses --      5.6926                 2.7050                 3.0664
 Frc consts  --      2.1282                 1.1577                 1.4235
 IR Inten    --     16.6872                19.2581                64.6018

                     19                     20                     21
                      A                      A                      A
 Frequencies --    933.1040               971.0721               983.4580
 Red. masses --      1.5306                 1.3863                 1.9700
 Frc consts  --      0.7852                 0.7702                 1.1226
 IR Inten    --      8.8847                 0.3112                 3.4418

                     22                     23                     24
                      A                      A                      A
 Frequencies --    992.5577              1019.6576              1042.6562
 Red. masses --      2.0884                 2.0180                 1.9483
 Frc consts  --      1.2122                 1.2362                 1.2479
 IR Inten    --     13.0945                21.0667                 0.6124

                     25                     26                     27
                      A                      A                      A
 Frequencies --   1121.6573              1143.5173              1162.7827
 Red. masses --      1.8028                 1.8360                 2.0691
 Frc consts  --      1.3363                 1.4145                 1.6483
 IR Inten    --     13.2258                27.5556                28.5877

                     28                     29                     30
                      A                      A                      A
 Frequencies --   1211.2208              1240.5834              1276.6567
 Red. masses --      3.1219                 3.1705                 3.1536
 Frc consts  --      2.6985                 2.8750                 3.0283
 IR Inten    --     45.2329                23.6901                 2.6139

                     31                     32                     33
                      A                      A                      A
 Frequencies --   1402.9003              1412.1194              1426.8707
 Red. masses --      1.3206                 1.2617                 1.2129
 Frc consts  --      1.5314                 1.4823                 1.4549
 IR Inten    --      1.1067                 6.8419                 0.8030

                     34                     35                     36
                      A                      A                      A
 Frequencies --   1453.0599              1476.5313              1483.6137
 Red. masses --      2.5911                 1.0731                 1.0546
 Frc consts  --      3.2233                 1.3784                 1.3677
 IR Inten    --     10.9475                 3.6876                 0.6978

                     37                     38                     39
                      A                      A                      A
 Frequencies --   1487.4695              1493.6820              1504.8242
 Red. masses --      1.0573                 1.0488                 1.0452
 Frc consts  --      1.3783                 1.3787                 1.3945
 IR Inten    --      3.0576                 3.7091                 9.8425

                     40                     41                     42
                      A                      A                      A
 Frequencies --   1518.3358              1937.1032              3032.6501
 Red. masses --      1.2918                12.7458                 1.0361
 Frc consts  --      1.7546                28.1788                 5.6141
 IR Inten    --      5.9354               501.8497                14.6602

                     43                     44                     45
                      A                      A                      A
 Frequencies --   3038.1815              3043.0400              3094.1481
 Red. masses --      1.0387                 1.0372                 1.1007
 Frc consts  --      5.6487                 5.6589                 6.2090
 IR Inten    --     34.3913                15.8394                 4.3370

                     46                     47                     48
                      A                      A                      A
 Frequencies --   3098.6291              3106.2718              3110.9996
 Red. masses --      1.1008                 1.1002                 1.1010
 Frc consts  --      6.2272                 6.2545                 6.2785
 IR Inten    --     28.0467                 6.5766                28.2652

                     49                     50                     51
                      A                      A                      A
 Frequencies --   3134.6389              3144.6722              3218.6391
 Red. masses --      1.0998                 1.0976                 1.0952
 Frc consts  --      6.3669                 6.3952                 6.6848
 IR Inten    --     10.6268                 7.6039                 1.6212

 - Thermochemistry -
 -------------------
 Temperature   298.150 Kelvin.  Pressure   1.00000 Atm.
 Atom     1 has atomic number  6 and mass  12.00000

 Molecular mass:   126.06808 amu.
 Principal axes and moments of inertia in atomic units:
                           1         2         3
     Eigenvalues --   741.953861183.339081503.00629
           X            0.99983   0.01514  -0.01093
           Y           -0.01477   0.99935   0.03302
           Z            0.01143  -0.03285   0.99939
 This molecule is an asymmetric top.
 Rotational symmetry number  1.
 Warning -- assumption of classical behavior for rotation
           may cause significant error
 Rotational temperatures (Kelvin)      0.11674     0.07319     0.05763
 Rotational constants (GHZ):           2.43242     1.52513     1.20075
 Zero-point vibrational energy     411853.3 (Joules/Mol)
                                   98.43529 (Kcal/Mol)
 Warning -- explicit consideration of  13 degrees of freedom as
           vibrations may cause significant error
 Vibrational temperatures:    186.06   255.88   276.16   279.23   285.16
          (Kelvin)            378.87   416.57   465.48   509.66   652.39
                              725.02   739.36   886.52   960.93  1043.68
                             1146.11  1226.26  1277.12  1342.53  1397.15
                             1414.97  1428.07  1467.06  1500.15  1613.81
                             1645.26  1672.98  1742.67  1784.92  1836.82
                             2018.46  2031.72  2052.95  2090.63  2124.40
                             2134.59  2140.13  2149.07  2165.10  2184.54
                             2787.06  4363.30  4371.26  4378.25  4451.78
                             4458.23  4469.23  4476.03  4510.04  4524.48
                             4630.90

 Zero-point correction=                           0.156867 (Hartree/Particle)
 Thermal correction to Energy=                    0.166005
 Thermal correction to Enthalpy=                  0.166949
 Thermal correction to Gibbs Free Energy=         0.123660
 Sum of electronic and zero-point Energies=           -423.042863
 Sum of electronic and thermal Energies=              -423.033725
 Sum of electronic and thermal Enthalpies=            -423.032781
 Sum of electronic and thermal Free Energies=         -423.076069

                     E (Thermal)             CV                S
                      KCal/Mol        Cal/Mol-Kelvin    Cal/Mol-Kelvin
 Total                  104.170             34.630             91.109
 Electronic               0.000              0.000              0.000
 Translational            0.889              2.981             40.409
 Rotational               0.889              2.981             28.669
 Vibrational            102.392             28.668             22.031
 Vibration     1          0.612              1.924              2.956
 Vibration     2          0.628              1.870              2.351
 Vibration     3          0.634              1.851              2.209
 Vibration     4          0.635              1.848              2.189
 Vibration     5          0.637              1.842              2.150
 Vibration     6          0.670              1.740              1.640
 Vibration     7          0.686              1.693              1.477
 Vibration     8          0.708              1.628              1.292
 Vibration     9          0.730              1.567              1.147
 Vibration    10          0.812              1.353              0.785
 Vibration    11          0.859              1.241              0.648
 Vibration    12          0.869              1.219              0.624
 Vibration    13          0.976              0.998              0.423

 Optimization completed.
    -- Stationary point found.
 Normal termination of Gaussian 09 at Mon Jan 27 16:33:18 2020.
