 Gaussian 09, Revision D.01,
 Gaussian 09:  ES64L-G09RevD.01 24-Apr-2013

 -----------------------------
 # b3lyp 6-31G(2df,p) opt Freq
 -----------------------------

 -----
 titel
 -----
 Symbolic Z-matrix:
 Charge =  0 Multiplicity = 1

 SCF Done:  E(RB3LYP) =  -423.205670751     A.U. after   14 cycles
 Optimization completed.
    -- Stationary point found.
 Normal termination of Gaussian 09 at Mon Jan 27 17:20:53 2020.

 ----------------------------------------------------------------------
 #N Geom=AllCheck Guess=TCheck SCRF=Check GenChk RB3LYP/6-31G(2df,p) Fr
 eq
 ----------------------------------------------------------------------

 Structure from the checkpoint file:  "/scratch/puck/g09_a88051f9-f11a-4304-88cb-8d914e59e8ad/Gau-78894.chk"
 -----
 titel
 -----
 Charge =  0 Multiplicity = 1

                         Standard orientation:
 ---------------------------------------------------------------------
 Center     Atomic      Atomic             Coordinates (Angstroms)
 Number     Number       Type             X           Y           Z
 ---------------------------------------------------------------------
      1          6           0       -0.584278    2.195387   -0.398846
      2          6           0       -0.668593    0.747528    0.007238
      3          6           0       -1.844173   -0.100557   -0.463420
      4          6           0       -1.479776   -1.544913   -0.057267
      5          6           0        0.064472   -1.598777   -0.083364
      6          6           0        0.482659   -0.177696    0.234501
      7          8           0       -0.242238    0.420638    1.330752
      8          6           0        1.895976    0.259199    0.094054
      9          8           0        2.737090   -0.377001   -0.492651
     10          1           0        0.302419    2.679155    0.014968
     11          1           0       -0.562424    2.291721   -1.488964
     12          1           0       -1.464621    2.735779   -0.034017
     13          1           0       -2.789769    0.239122   -0.027960
     14          1           0       -1.930840    0.001772   -1.552105
     15          1           0       -1.833114   -1.736925    0.957975
     16          1           0       -1.935524   -2.290969   -0.711913
     17          1           0        0.476727   -2.321300    0.626604
     18          1           0        0.455609   -1.857171   -1.073024
     19          1           0        2.124992    1.228692    0.586250
 ---------------------------------------------------------------------

 SCF Done:  E(RB3LYP) =  -423.205670751     A.U. after    1 cycles

 The electronic state is 1-A.
 Alpha  occ. eigenvalues --  -19.16276 -19.14276 -10.27276 -10.25681 -10.24532
 Alpha  occ. eigenvalues --  -10.19473 -10.19467 -10.19071 -10.18952  -1.08631
 Alpha  occ. eigenvalues --   -1.04779  -0.81722  -0.76524  -0.72855  -0.67276
 Alpha  occ. eigenvalues --   -0.62947  -0.57777  -0.53616  -0.50429  -0.48586
 Alpha  occ. eigenvalues --   -0.46414  -0.45400  -0.43207  -0.42228  -0.41138
 Alpha  occ. eigenvalues --   -0.39204  -0.38588  -0.36966  -0.36100  -0.34774
 Alpha  occ. eigenvalues --   -0.34549  -0.30018  -0.27358  -0.25422
 Alpha virt. eigenvalues --   -0.03537   0.08445   0.09627   0.10429   0.11136
 Alpha virt. eigenvalues --    0.13145   0.14278   0.15163   0.16035   0.16926
 Alpha virt. eigenvalues --    0.18021   0.18743   0.19521   0.19961   0.22374

 Mulliken charges:
               1
     1  C   -0.483755
     2  C    0.348910
     3  C   -0.271201
     4  C   -0.224685
     5  C   -0.289703
     6  C    0.250363
     7  O   -0.324884
     8  C    0.085808
     9  O   -0.259879
    10  H    0.133685
    11  H    0.131351
    12  H    0.133492
    13  H    0.111121
    14  H    0.108302
    15  H    0.122010
    16  H    0.103716
    17  H    0.116644
    18  H    0.124494
    19  H    0.084213
 Sum of Mulliken charges =   0.00000

 Dipole moment (field-independent basis, Debye):
    X=             -2.5030    Y=              0.8142    Z=             -0.7748  Tot=              2.7438
 Quadrupole moment (field-independent basis, Debye-Ang):
   XX=            -59.0548   YY=            -50.0013   ZZ=            -55.1434
   XY=              2.1101   XZ=              3.5772   YZ=             -1.3970

  Exact polarizability:  87.300  -3.299  80.509  -0.071   1.467  61.293
 Approx polarizability: 126.365 -13.044 109.811  -6.303   6.318 103.755

                      1                      2                      3
                      A                      A                      A
 Frequencies --     98.2522               170.2732               179.8320
 Red. masses --      4.4648                 2.9029                 1.1173
 Frc consts  --      0.0254                 0.0496                 0.0213
 IR Inten    --      5.0681                 2.6798                 1.0975

                      4                      5                      6
                      A                      A                      A
 Frequencies --    203.2918               226.8112               271.6772
 Red. masses --      1.8248                 2.4806                 2.4288
 Frc consts  --      0.0444                 0.0752                 0.1056
 IR Inten    --      0.2582                 5.1748                 3.5760

                      7                      8                      9
                      A                      A                      A
 Frequencies --    330.0743               452.9352               454.5486
 Red. masses --      2.3846                 2.6978                 3.7184
 Frc consts  --      0.1531                 0.3261                 0.4527
 IR Inten    --      3.1819                 2.9112                13.4249

                     10                     11                     12
                      A                      A                      A
 Frequencies --    477.5532               570.7862               640.0462
 Red. masses --      5.6979                 4.3972                 2.5625
 Frc consts  --      0.7656                 0.8441                 0.6185
 IR Inten    --      1.5615                 1.9603                14.0737

                     13                     14                     15
                      A                      A                      A
 Frequencies --    694.3185               743.4946               798.0667
 Red. masses --      3.5598                 3.2645                 2.5591
 Frc consts  --      1.0111                 1.0632                 0.9603
 IR Inten    --      2.7441                15.6423                12.0593

                     16                     17                     18
                      A                      A                      A
 Frequencies --    880.7486               890.4429               919.7408
 Red. masses --      1.5828                 2.8678                 2.1295
 Frc consts  --      0.7234                 1.3397                 1.0614
 IR Inten    --      3.3058                10.0511                 5.3184

                     19                     20                     21
                      A                      A                      A
 Frequencies --    939.2124              1014.9835              1015.3708
 Red. masses --      2.1061                 1.9062                 1.6462
 Frc consts  --      1.0946                 1.1570                 0.9999
 IR Inten    --      4.2060                 5.0317                 3.4776

                     22                     23                     24
                      A                      A                      A
 Frequencies --   1031.9640              1068.5644              1124.2127
 Red. masses --      2.0351                 1.9258                 1.9893
 Frc consts  --      1.2769                 1.2955                 1.4813
 IR Inten    --      0.2754                 4.2061                18.9978

                     25                     26                     27
                      A                      A                      A
 Frequencies --   1170.7574              1208.0088              1227.4164
 Red. masses --      1.3597                 1.6502                 2.6301
 Frc consts  --      1.0981                 1.4188                 2.3346
 IR Inten    --      1.6478                 9.6099                10.3826

                     28                     29                     30
                      A                      A                      A
 Frequencies --   1246.1198              1263.4787              1322.1229
 Red. masses --      1.4614                 1.6161                 2.2390
 Frc consts  --      1.3371                 1.5201                 2.3059
 IR Inten    --     10.8302                 6.0304                 7.9895

                     31                     32                     33
                      A                      A                      A
 Frequencies --   1340.3378              1356.8807              1388.1875
 Red. masses --      1.3684                 1.8557                 1.5938
 Frc consts  --      1.4484                 2.0130                 1.8096
 IR Inten    --      0.7373                 4.6951                11.4552

                     34                     35                     36
                      A                      A                      A
 Frequencies --   1411.2172              1440.4352              1477.8531
 Red. masses --      1.3113                 1.9212                 1.0904
 Frc consts  --      1.5386                 2.3486                 1.4032
 IR Inten    --     11.5164                20.9061                 0.8590

                     37                     38                     39
                      A                      A                      A
 Frequencies --   1481.3233              1486.0444              1499.0165
 Red. masses --      1.0687                 1.0794                 1.1069
 Frc consts  --      1.3817                 1.4045                 1.4654
 IR Inten    --      5.9756                 2.3075                 0.4150

                     40                     41                     42
                      A                      A                      A
 Frequencies --   1503.7474              1811.6489              2904.4557
 Red. masses --      1.1562                10.7053                 1.0838
 Frc consts  --      1.5404                20.7012                 5.3869
 IR Inten    --      3.5470               199.3129                85.9784

                     43                     44                     45
                      A                      A                      A
 Frequencies --   3034.8743              3041.7545              3057.2474
 Red. masses --      1.0576                 1.0409                 1.0601
 Frc consts  --      5.7393                 5.6742                 5.8379
 IR Inten    --     14.3531                33.1211                14.1101

                     46                     47                     48
                      A                      A                      A
 Frequencies --   3072.7771              3081.9118              3097.6594
 Red. masses --      1.0760                 1.0868                 1.1024
 Frc consts  --      5.9858                 6.0819                 6.2325
 IR Inten    --     12.8080                25.0209                12.5827

                     49                     50                     51
                      A                      A                      A
 Frequencies --   3102.1451              3122.8975              3134.5912
 Red. masses --      1.0999                 1.1059                 1.1004
 Frc consts  --      6.2364                 6.3545                 6.3706
 IR Inten    --     14.2680                25.7908                13.6392

 - Thermochemistry -
 -------------------
 Temperature   298.150 Kelvin.  Pressure   1.00000 Atm.
 Atom     1 has atomic number  6 and mass  12.00000

 Molecular mass:   126.06808 amu.
 Principal axes and moments of inertia in atomic units:
                           1         2         3
     Eigenvalues --   765.915201124.207541565.94635
           X            0.99930   0.03111   0.02097
           Y           -0.03074   0.99937  -0.01764
           Z           -0.02151   0.01699   0.99962
 This molecule is an asymmetric top.
 Rotational symmetry number  1.
 Warning -- assumption of classical behavior for rotation
           may cause significant error
 Rotational temperatures (Kelvin)      0.11309     0.07704     0.05531
 Rotational constants (GHZ):           2.35632     1.60535     1.15249
 Zero-point vibrational energy     415595.3 (Joules/Mol)
                                   99.32966 (Kcal/Mol)
 Warning -- explicit consideration of  11 degrees of freedom as
           vibrations may cause significant error
 Vibrational temperatures:    141.36   244.98   258.74   292.49   326.33
          (Kelvin)            390.88   474.90   651.67   653.99   687.09
                              821.23   920.88   998.97  1069.72  1148.24
                             1267.20  1281.15  1323.30  1351.32  1460.33
                             1460.89  1484.76  1537.42  1617.49  1684.46
                             1738.05  1765.98  1792.89  1817.86  1902.24
                             1928.44  1952.25  1997.29  2030.42  2072.46
                             2126.30  2131.29  2138.08  2156.75  2163.55
                             2606.56  4178.86  4366.50  4376.40  4398.69
                             4421.04  4434.18  4456.84  4463.29  4493.15
                             4509.97

 Zero-point correction=                           0.158292 (Hartree/Particle)
 Thermal correction to Energy=                    0.166867
 Thermal correction to Enthalpy=                  0.167811
 Thermal correction to Gibbs Free Energy=         0.125304
 Sum of electronic and zero-point Energies=           -423.047379
 Sum of electronic and thermal Energies=              -423.038804
 Sum of electronic and thermal Enthalpies=            -423.037860
 Sum of electronic and thermal Free Energies=         -423.080366

                     E (Thermal)             CV                S
                      KCal/Mol        Cal/Mol-Kelvin    Cal/Mol-Kelvin
 Total                  104.710             32.584             89.462
 Electronic               0.000              0.000              0.000
 Translational            0.889              2.981             40.409
 Rotational               0.889              2.981             28.691
 Vibrational            102.933             26.622             20.363
 Vibration     1          0.604              1.950              3.489
 Vibration     2          0.625              1.879              2.432
 Vibration     3          0.629              1.867              2.330
 Vibration     4          0.639              1.835              2.103
 Vibration     5          0.650              1.800              1.904
 Vibration     6          0.675              1.725              1.586
 Vibration     7          0.713              1.615              1.260
 Vibration     8          0.811              1.354              0.787
 Vibration     9          0.813              1.351              0.782
 Vibration    10          0.834              1.300              0.717
 Vibration    11          0.927              1.094              0.503

 Optimization completed.
    -- Stationary point found.
 Normal termination of Gaussian 09 at Mon Jan 27 18:12:39 2020.
