 Gaussian 09, Revision D.01,
 Gaussian 09:  ES64L-G09RevD.01 24-Apr-2013

 -----------------------------
 # b3lyp 6-31G(2df,p) opt Freq
 -----------------------------

 -----
 titel
 -----
 Symbolic Z-matrix:
 Charge =  0 Multiplicity = 1

 SCF Done:  E(RB3LYP) =  -423.197048867     A.U. after   14 cycles
 Optimization completed.
    -- Stationary point found.
 Normal termination of Gaussian 09 at Mon Jan 27 14:03:57 2020.

 ----------------------------------------------------------------------
 #N Geom=AllCheck Guess=TCheck SCRF=Check GenChk RB3LYP/6-31G(2df,p) Fr
 eq
 ----------------------------------------------------------------------

 Structure from the checkpoint file:  "/scratch/puck/g09_6b5fe076-bfac-43e2-ae71-2ee58b7410bf/Gau-171726.chk"
 -----
 titel
 -----
 Charge =  0 Multiplicity = 1

                         Standard orientation:
 ---------------------------------------------------------------------
 Center     Atomic      Atomic             Coordinates (Angstroms)
 Number     Number       Type             X           Y           Z
 ---------------------------------------------------------------------
      1          6           0       -2.314713   -0.824057    0.780486
      2          6           0       -1.097417   -0.863588   -0.114266
      3          8           0       -0.961910   -1.646057   -1.022878
      4          6           0       -0.012921    0.201342    0.185882
      5          6           0       -0.497600    1.512971   -0.439483
      6          8           0       -1.344058    2.221995    0.040001
      7          6           0        1.344215   -0.201210   -0.342677
      8          6           0        2.582943    0.537979    0.103219
      9          6           0        2.342825   -0.880223    0.556829
     10          1           0       -2.038922   -1.188252    1.777750
     11          1           0       -2.660138    0.207325    0.902589
     12          1           0       -3.104359   -1.456146    0.372645
     13          1           0        0.004296    0.369860    1.269010
     14          1           0       -0.010329    1.763313   -1.406785
     15          1           0        1.318314   -0.545100   -1.371130
     16          1           0        3.361534    0.722946   -0.628196
     17          1           0        2.470162    1.328743    0.838245
     18          1           0        2.953956   -1.669290    0.134174
     19          1           0        2.069234   -1.040185    1.594785
 ---------------------------------------------------------------------

 SCF Done:  E(RB3LYP) =  -423.197048867     A.U. after    1 cycles

 The electronic state is 1-A.
 Alpha  occ. eigenvalues --  -19.15395 -19.14089 -10.28501 -10.28291 -10.21192
 Alpha  occ. eigenvalues --  -10.20297 -10.19530 -10.19468 -10.19231  -1.06173
 Alpha  occ. eigenvalues --   -1.05158  -0.87200  -0.78714  -0.73533  -0.61621
 Alpha  occ. eigenvalues --   -0.59874  -0.59381  -0.54350  -0.50344  -0.49249
 Alpha  occ. eigenvalues --   -0.46681  -0.46337  -0.44701  -0.43330  -0.41939
 Alpha  occ. eigenvalues --   -0.40373  -0.38445  -0.37323  -0.36486  -0.36164
 Alpha  occ. eigenvalues --   -0.30728  -0.30335  -0.26706  -0.24894
 Alpha virt. eigenvalues --   -0.04991  -0.00154   0.08153   0.09606   0.11251
 Alpha virt. eigenvalues --    0.12029   0.13146   0.14567   0.15200   0.15579
 Alpha virt. eigenvalues --    0.16334   0.17666   0.20703   0.21566   0.22730

 Mulliken charges:
               1
     1  C   -0.486184
     2  C    0.375898
     3  O   -0.289709
     4  C   -0.208769
     5  C    0.152492
     6  O   -0.246788
     7  C    0.024622
     8  C   -0.286940
     9  C   -0.273062
    10  H    0.143945
    11  H    0.166405
    12  H    0.142645
    13  H    0.105907
    14  H    0.098230
    15  H    0.111875
    16  H    0.118959
    17  H    0.115349
    18  H    0.122783
    19  H    0.112343
 Sum of Mulliken charges =   0.00000

 Dipole moment (field-independent basis, Debye):
    X=              1.3949    Y=             -0.1651    Z=              1.2458  Tot=              1.8775
 Quadrupole moment (field-independent basis, Debye-Ang):
   XX=            -52.2444   YY=            -61.0794   ZZ=            -52.1843
   XY=              2.8830   XZ=             -2.5750   YZ=             -4.2664

  Exact polarizability:  85.435   0.131  78.135  -4.947   0.447  67.541
 Approx polarizability: 109.901  -4.993 121.825  -7.559   9.910 109.370

                      1                      2                      3
                      A                      A                      A
 Frequencies --     52.9475                65.8541                77.3430
 Red. masses --      3.5239                 3.9110                 3.9570
 Frc consts  --      0.0058                 0.0100                 0.0139
 IR Inten    --      3.1690                 3.3243                 7.9384

                      4                      5                      6
                      A                      A                      A
 Frequencies --    153.4344               176.6987               188.6474
 Red. masses --      2.8614                 1.0971                 3.3735
 Frc consts  --      0.0397                 0.0202                 0.0707
 IR Inten    --      2.4675                 0.1487                 7.1494

                      7                      8                      9
                      A                      A                      A
 Frequencies --    206.8331               328.3408               370.9748
 Red. masses --      2.4300                 4.7730                 2.8596
 Frc consts  --      0.0612                 0.3032                 0.2319
 IR Inten    --      1.6710                 1.7821                 1.5963

                     10                     11                     12
                      A                      A                      A
 Frequencies --    414.9790               499.4155               586.2285
 Red. masses --      3.0599                 4.0666                 4.0536
 Frc consts  --      0.3105                 0.5976                 0.8208
 IR Inten    --      4.3218                 5.2565                14.4575

                     13                     14                     15
                      A                      A                      A
 Frequencies --    593.3267               763.1027               792.4662
 Red. masses --      2.3597                 1.7470                 1.4439
 Frc consts  --      0.4894                 0.5994                 0.5343
 IR Inten    --      9.0960                 7.4373                 7.2555

                     16                     17                     18
                      A                      A                      A
 Frequencies --    831.6197               879.3413               921.1778
 Red. masses --      1.3057                 2.1941                 3.9344
 Frc consts  --      0.5320                 0.9996                 1.9671
 IR Inten    --     10.2113                 1.4427                 6.1088

                     19                     20                     21
                      A                      A                      A
 Frequencies --    952.5391               972.9831               985.3368
 Red. masses --      1.8357                 2.0934                 1.7454
 Frc consts  --      0.9813                 1.1677                 0.9984
 IR Inten    --      5.8854                37.8918                 6.7046

                     22                     23                     24
                      A                      A                      A
 Frequencies --   1045.0022              1062.2961              1084.2094
 Red. masses --      2.7637                 1.3405                 1.4163
 Frc consts  --      1.7782                 0.8913                 0.9809
 IR Inten    --     34.8159                 7.1260                 0.7487

                     25                     26                     27
                      A                      A                      A
 Frequencies --   1092.0083              1136.8559              1159.7411
 Red. masses --      2.2141                 1.1297                 1.9353
 Frc consts  --      1.5556                 0.8602                 1.5336
 IR Inten    --     27.1036                 0.3702                32.7688

                     28                     29                     30
                      A                      A                      A
 Frequencies --   1197.2896              1198.0533              1224.4890
 Red. masses --      2.2065                 1.4878                 1.4924
 Frc consts  --      1.8636                 1.2582                 1.3184
 IR Inten    --     21.5813                 1.2527                33.0999

                     31                     32                     33
                      A                      A                      A
 Frequencies --   1231.7485              1280.3205              1385.9388
 Red. masses --      1.7077                 1.4051                 1.2960
 Frc consts  --      1.5265                 1.3571                 1.4667
 IR Inten    --     22.0886                21.8979                40.2464

                     34                     35                     36
                      A                      A                      A
 Frequencies --   1414.3314              1423.8119              1467.3074
 Red. masses --      1.2377                 1.5758                 1.0494
 Frc consts  --      1.4587                 1.8821                 1.3311
 IR Inten    --      4.2475                 1.3650                 9.8600

                     37                     38                     39
                      A                      A                      A
 Frequencies --   1471.7756              1474.7911              1507.8006
 Red. masses --      1.0854                 1.0547                 1.3888
 Frc consts  --      1.3853                 1.3515                 1.8603
 IR Inten    --      1.3792                 9.7229                 1.2770

                     40                     41                     42
                      A                      A                      A
 Frequencies --   1801.2101              1830.2071              2899.6773
 Red. masses --     10.6260                10.6604                 1.0845
 Frc consts  --     20.3119                21.0390                 5.3727
 IR Inten    --    283.6590                39.0291                81.2238

                     43                     44                     45
                      A                      A                      A
 Frequencies --   3035.9927              3049.6724              3102.8390
 Red. masses --      1.0393                 1.0818                 1.0950
 Frc consts  --      5.6440                 5.9278                 6.2114
 IR Inten    --      1.9422                 7.4849                 3.1919

                     46                     47                     48
                      A                      A                      A
 Frequencies --   3130.2291              3135.4095              3155.8730
 Red. masses --      1.0514                 1.0587                 1.1038
 Frc consts  --      6.0700                 6.1322                 6.4773
 IR Inten    --     16.5184                 8.8878                 6.9707

                     49                     50                     51
                      A                      A                      A
 Frequencies --   3171.3927              3209.6543              3224.9864
 Red. masses --      1.0884                 1.1172                 1.1147
 Frc consts  --      6.4494                 6.7813                 6.8309
 IR Inten    --      1.5573                 0.5541                16.3752

 - Thermochemistry -
 -------------------
 Temperature   298.150 Kelvin.  Pressure   1.00000 Atm.
 Atom     1 has atomic number  6 and mass  12.00000

 Molecular mass:   126.06808 amu.
 Principal axes and moments of inertia in atomic units:
                           1         2         3
     Eigenvalues --   854.379211398.846611930.32320
           X            0.99950   0.02636  -0.01756
           Y           -0.02694   0.99907  -0.03373
           Z            0.01666   0.03419   0.99928
 This molecule is an asymmetric top.
 Rotational symmetry number  1.
 Warning -- assumption of classical behavior for rotation
           may cause significant error
 Rotational temperatures (Kelvin)      0.10138     0.06192     0.04487
 Rotational constants (GHZ):           2.11234     1.29016     0.93494
 Zero-point vibrational energy     409233.5 (Joules/Mol)
                                   97.80916 (Kcal/Mol)
 Warning -- explicit consideration of  13 degrees of freedom as
           vibrations may cause significant error
 Vibrational temperatures:     76.18    94.75   111.28   220.76   254.23
          (Kelvin)            271.42   297.59   472.41   533.75   597.06
                              718.55   843.45   853.66  1097.93  1140.18
                             1196.51  1265.17  1325.37  1370.49  1399.90
                             1417.68  1503.52  1528.41  1559.93  1571.15
                             1635.68  1668.61  1722.63  1723.73  1761.76
                             1772.21  1842.09  1994.05  2034.90  2048.55
                             2111.13  2117.55  2121.89  2169.39  2591.54
                             2633.26  4171.98  4368.11  4387.79  4464.29
                             4503.70  4511.15  4540.59  4562.92  4617.97
                             4640.03

 Zero-point correction=                           0.155869 (Hartree/Particle)
 Thermal correction to Energy=                    0.165798
 Thermal correction to Enthalpy=                  0.166742
 Thermal correction to Gibbs Free Energy=         0.119878
 Sum of electronic and zero-point Energies=           -423.041180
 Sum of electronic and thermal Energies=              -423.031251
 Sum of electronic and thermal Enthalpies=            -423.030306
 Sum of electronic and thermal Free Energies=         -423.077170

                     E (Thermal)             CV                S
                      KCal/Mol        Cal/Mol-Kelvin    Cal/Mol-Kelvin
 Total                  104.040             34.819             98.634
 Electronic               0.000              0.000              0.000
 Translational            0.889              2.981             40.409
 Rotational               0.889              2.981             29.224
 Vibrational            102.263             28.857             29.001
 Vibration     1          0.596              1.976              4.704
 Vibration     2          0.597              1.971              4.274
 Vibration     3          0.599              1.964              3.957
 Vibration     4          0.619              1.899              2.629
 Vibration     5          0.628              1.871              2.363
 Vibration     6          0.633              1.855              2.241
 Vibration     7          0.641              1.830              2.071
 Vibration     8          0.712              1.619              1.268
 Vibration     9          0.743              1.532              1.076
 Vibration    10          0.778              1.438              0.909
 Vibration    11          0.855              1.251              0.660
 Vibration    12          0.943              1.061              0.474
 Vibration    13          0.951              1.046              0.461

 Normal termination of Gaussian 09 at Mon Jan 27 14:43:10 2020.
