 Gaussian 09, Revision D.01,
 Gaussian 09:  ES64L-G09RevD.01 24-Apr-2013

 -----------------------------
 # b3lyp 6-31G(2df,p) opt Freq
 -----------------------------

 -----
 titel
 -----
 Symbolic Z-matrix:
 Charge =  0 Multiplicity = 1

 SCF Done:  E(RB3LYP) =  -423.119022044     A.U. after   14 cycles
 SCF Done:  E(RB3LYP) =  -423.119022033     A.U. after    7 cycles
 SCF Done:  E(RB3LYP) =  -423.119022074     A.U. after    7 cycles
 Optimization completed.
    -- Stationary point found.
 Normal termination of Gaussian 09 at Tue Jan 28 14:36:45 2020.

 ----------------------------------------------------------------------
 #N Geom=AllCheck Guess=TCheck SCRF=Check GenChk RB3LYP/6-31G(2df,p) Fr
 eq
 ----------------------------------------------------------------------

 Structure from the checkpoint file:  "/scratch/puck/g09_0a0d37ab-5e19-4e50-81e2-ccf2dc06de38/Gau-112602.chk"
 -----
 titel
 -----
 Charge =  0 Multiplicity = 1

                         Standard orientation:
 ---------------------------------------------------------------------
 Center     Atomic      Atomic             Coordinates (Angstroms)
 Number     Number       Type             X           Y           Z
 ---------------------------------------------------------------------
      1          8           0        4.197394    0.370191   -0.152263
      2          6           0        3.080038   -0.447066    0.151386
      3          6           0        1.748744    0.186271   -0.254814
      4          6           0        0.539131   -0.672232    0.139990
      5          6           0       -0.766602   -0.041920   -0.276578
      6          8           0       -1.223694    1.067369    0.495429
      7          6           0       -1.992423   -0.148688    0.543016
      8          6           0       -3.305786   -0.127338   -0.042469
      9          6           0       -4.410109   -0.127611   -0.516994
     10          1           0        4.223230    0.491410   -1.106787
     11          1           0        3.176079   -1.445426   -0.307802
     12          1           0        3.108529   -0.592405    1.237269
     13          1           0        1.666867    1.174541    0.210352
     14          1           0        1.744091    0.346625   -1.342956
     15          1           0        0.613381   -1.665164   -0.323861
     16          1           0        0.530400   -0.824335    1.225799
     17          1           0       -0.909541    0.087177   -1.351073
     18          1           0       -1.916131   -0.678994    1.492047
     19          1           0       -5.384462   -0.122405   -0.939548
 ---------------------------------------------------------------------

 SCF Done:  E(RB3LYP) =  -423.119022074     A.U. after    1 cycles

 The electronic state is 1-A.
 Alpha  occ. eigenvalues --  -19.15989 -19.13505 -10.26230 -10.24877 -10.22923
 Alpha  occ. eigenvalues --  -10.19794 -10.19039 -10.18800 -10.18553  -1.08046
 Alpha  occ. eigenvalues --   -1.01645  -0.79956  -0.76888  -0.71244  -0.68046
 Alpha  occ. eigenvalues --   -0.62330  -0.59524  -0.54911  -0.51402  -0.50486
 Alpha  occ. eigenvalues --   -0.48746  -0.46494  -0.43213  -0.42662  -0.40013
 Alpha  occ. eigenvalues --   -0.38675  -0.37128  -0.35067  -0.33916  -0.32212
 Alpha  occ. eigenvalues --   -0.28388  -0.27934  -0.27222  -0.25836
 Alpha virt. eigenvalues --    0.01961   0.03870   0.07378   0.09780   0.10484
 Alpha virt. eigenvalues --    0.11430   0.12395   0.13554   0.14372   0.15167
 Alpha virt. eigenvalues --    0.16822   0.17313   0.18712   0.19795   0.20508

 Mulliken charges:
               1
     1  O   -0.416706
     2  C   -0.057622
     3  C   -0.195313
     4  C   -0.236017
     5  C    0.076121
     6  O   -0.241838
     7  C   -0.165742
     8  C    0.319086
     9  C   -0.411599
    10  H    0.280595
    11  H    0.083846
    12  H    0.113799
    13  H    0.127888
    14  H    0.087367
    15  H    0.106098
    16  H    0.108872
    17  H    0.101718
    18  H    0.116445
    19  H    0.203004
 Sum of Mulliken charges =   0.00000

 Dipole moment (field-independent basis, Debye):
    X=             -0.5819    Y=             -2.0247    Z=             -1.5494  Tot=              2.6151
 Quadrupole moment (field-independent basis, Debye-Ang):
   XX=            -55.7063   YY=            -56.1666   ZZ=            -49.4109
   XY=              0.2266   XZ=             -2.8813   YZ=             -2.1345

  Exact polarizability: 118.028   1.321  58.516   4.941  -1.850  65.192
 Approx polarizability: 149.516   4.825  91.957  11.976   0.162 102.147

                      1                      2                      3
                      A                      A                      A
 Frequencies --     45.1116                71.8407                86.0252
 Red. masses --      5.4850                 4.0072                 2.1049
 Frc consts  --      0.0066                 0.0122                 0.0092
 IR Inten    --      0.0296                 1.0407                 2.5859

                      4                      5                      6
                      A                      A                      A
 Frequencies --    131.5433               164.4735               196.1934
 Red. masses --      3.2871                 3.0505                 3.9263
 Frc consts  --      0.0335                 0.0486                 0.0890
 IR Inten    --      2.2008                 1.8908                 1.5235

                      7                      8                      9
                      A                      A                      A
 Frequencies --    287.7137               293.5091               317.6666
 Red. masses --      1.8917                 3.9958                 1.7669
 Frc consts  --      0.0923                 0.2028                 0.1051
 IR Inten    --     36.7152                 0.1418                82.9749

                     10                     11                     12
                      A                      A                      A
 Frequencies --    413.1147               479.0814               539.2245
 Red. masses --      3.5084                 3.6567                 5.6919
 Frc consts  --      0.3528                 0.4945                 0.9751
 IR Inten    --      1.7886                 9.3460                 3.9909

                     13                     14                     15
                      A                      A                      A
 Frequencies --    579.0875               620.2584               670.4971
 Red. masses --      4.7100                 1.2121                 1.2521
 Frc consts  --      0.9306                 0.2748                 0.3317
 IR Inten    --      8.2423                45.8948                34.7893

                     16                     17                     18
                      A                      A                      A
 Frequencies --    751.1247               788.7951               866.9183
 Red. masses --      1.2527                 2.7829                 1.5173
 Frc consts  --      0.4164                 1.0202                 0.6719
 IR Inten    --      2.3959                 9.1537                 9.2213

                     19                     20                     21
                      A                      A                      A
 Frequencies --    913.5949               969.6706              1007.4492
 Red. masses --      5.1445                 2.9380                 4.1112
 Frc consts  --      2.5299                 1.6276                 2.4584
 IR Inten    --     50.0973                 7.4456                 8.3903

                     22                     23                     24
                      A                      A                      A
 Frequencies --   1051.2272              1051.5590              1080.2547
 Red. masses --      2.5982                 2.1446                 1.9270
 Frc consts  --      1.6917                 1.3972                 1.3249
 IR Inten    --      7.7197                 8.0135                37.5096

                     25                     26                     27
                      A                      A                      A
 Frequencies --   1083.4439              1121.1356              1146.5232
 Red. masses --      2.9365                 1.4110                 1.4652
 Frc consts  --      2.0310                 1.0449                 1.1348
 IR Inten    --     92.6183                 9.4221                 1.1024

                     28                     29                     30
                      A                      A                      A
 Frequencies --   1191.8746              1258.4195              1275.7819
 Red. masses --      1.5245                 1.3753                 1.4301
 Frc consts  --      1.2760                 1.2832                 1.3714
 IR Inten    --      1.7463                 6.7085                 2.4480

                     31                     32                     33
                      A                      A                      A
 Frequencies --   1295.8063              1323.3102              1349.9813
 Red. masses --      1.2793                 1.0827                 1.2100
 Frc consts  --      1.2656                 1.1171                 1.2993
 IR Inten    --     14.6565                 2.6876                 8.8671

                     34                     35                     36
                      A                      A                      A
 Frequencies --   1380.2271              1402.0436              1424.0545
 Red. masses --      1.3586                 1.3586                 1.2946
 Frc consts  --      1.5249                 1.5735                 1.5468
 IR Inten    --      2.9352                 9.1898                56.8037

                     37                     38                     39
                      A                      A                      A
 Frequencies --   1466.6506              1475.1125              1492.6772
 Red. masses --      1.6209                 1.4564                 1.0879
 Frc consts  --      2.0542                 1.8672                 1.4282
 IR Inten    --      7.7620                 7.6987                 2.1027

                     40                     41                     42
                      A                      A                      A
 Frequencies --   1515.6056              2241.4584              2963.2991
 Red. masses --      1.0959                 5.9539                 1.0710
 Frc consts  --      1.4831                17.6245                 5.5412
 IR Inten    --      0.7283                 0.6123                60.0555

                     43                     44                     45
                      A                      A                      A
 Frequencies --   3005.4029              3020.0746              3060.7233
 Red. masses --      1.0669                 1.0617                 1.0885
 Frc consts  --      5.6779                 5.7055                 6.0080
 IR Inten    --     17.9042                23.6374                19.1139

                     46                     47                     48
                      A                      A                      A
 Frequencies --   3062.4995              3085.9682              3099.6147
 Red. masses --      1.0947                 1.0985                 1.0905
 Frc consts  --      6.0494                 6.1637                 6.1730
 IR Inten    --      7.0080                30.4335                30.1243

                     49                     50                     51
                      A                      A                      A
 Frequencies --   3112.4399              3503.6282              3814.8243
 Red. masses --      1.0852                 1.1622                 1.0661
 Frc consts  --      6.1937                 8.4052                 9.1413
 IR Inten    --     26.2544                75.4254                16.5668

 - Thermochemistry -
 -------------------
 Temperature   298.150 Kelvin.  Pressure   1.00000 Atm.
 Atom     1 has atomic number  8 and mass  15.99491

 Molecular mass:   126.06808 amu.
 Principal axes and moments of inertia in atomic units:
                           1         2         3
     Eigenvalues --   221.455913502.904863552.06356
           X            1.00000  -0.00164   0.00031
           Y            0.00167   0.98299  -0.18363
           Z           -0.00001   0.18363   0.98299
 This molecule is an asymmetric top.
 Rotational symmetry number  1.
 Rotational temperatures (Kelvin)      0.39111     0.02473     0.02438
 Rotational constants (GHZ):           8.14944     0.51521     0.50808
 Zero-point vibrational energy     410011.2 (Joules/Mol)
                                   97.99502 (Kcal/Mol)
 Warning -- explicit consideration of  14 degrees of freedom as
           vibrations may cause significant error
 Vibrational temperatures:     64.91   103.36   123.77   189.26   236.64
          (Kelvin)            282.28   413.96   422.29   457.05   594.38
                              689.29   775.82   833.18   892.41   964.69
                             1080.70  1134.90  1247.30  1314.46  1395.14
                             1449.49  1512.48  1512.96  1554.24  1558.83
                             1613.06  1649.59  1714.84  1810.58  1835.56
                             1864.37  1903.95  1942.32  1985.84  2017.23
                             2048.89  2110.18  2122.36  2147.63  2180.62
                             3224.95  4263.52  4324.10  4345.21  4403.69
                             4406.25  4440.01  4459.65  4478.10  5040.93
                             5488.67

 Zero-point correction=                           0.156165 (Hartree/Particle)
 Thermal correction to Energy=                    0.166337
 Thermal correction to Enthalpy=                  0.167281
 Thermal correction to Gibbs Free Energy=         0.119954
 Sum of electronic and zero-point Energies=           -422.962857
 Sum of electronic and thermal Energies=              -422.952685
 Sum of electronic and thermal Enthalpies=            -422.951741
 Sum of electronic and thermal Free Energies=         -422.999068

                     E (Thermal)             CV                S
                      KCal/Mol        Cal/Mol-Kelvin    Cal/Mol-Kelvin
 Total                  104.378             35.943             99.610
 Electronic               0.000              0.000              0.000
 Translational            0.889              2.981             40.409
 Rotational               0.889              2.981             29.401
 Vibrational            102.601             29.982             29.800
 Vibration     1          0.595              1.979              5.021
 Vibration     2          0.598              1.967              4.102
 Vibration     3          0.601              1.959              3.748
 Vibration     4          0.612              1.922              2.923
 Vibration     5          0.623              1.886              2.498
 Vibration     6          0.636              1.845              2.169
 Vibration     7          0.685              1.697              1.487
 Vibration     8          0.688              1.686              1.454
 Vibration     9          0.704              1.640              1.322
 Vibration    10          0.777              1.442              0.916
 Vibration    11          0.836              1.296              0.713
 Vibration    12          0.894              1.163              0.567
 Vibration    13          0.936              1.077              0.487
 Vibration    14          0.980              0.989              0.416

 Optimization completed.
    -- Stationary point found.
 Normal termination of Gaussian 09 at Tue Jan 28 15:05:44 2020.
