 Gaussian 09, Revision D.01,
 Gaussian 09:  ES64L-G09RevD.01 24-Apr-2013

 -----------------------------
 # b3lyp 6-31G(2df,p) opt Freq
 -----------------------------

 -----
 titel
 -----
 Symbolic Z-matrix:
 Charge =  0 Multiplicity = 1

 SCF Done:  E(RB3LYP) =  -423.144100393     A.U. after   14 cycles
 Optimization completed.
    -- Stationary point found.
 Normal termination of Gaussian 09 at Mon Jan 27 16:10:25 2020.

 ----------------------------------------------------------------------
 #N Geom=AllCheck Guess=TCheck SCRF=Check GenChk RB3LYP/6-31G(2df,p) Fr
 eq
 ----------------------------------------------------------------------

 Structure from the checkpoint file:  "/scratch/puck/g09_d5241f64-3558-4a3e-81ad-9a0e859addf8/Gau-59891.chk"
 -----
 titel
 -----
 Charge =  0 Multiplicity = 1

                         Standard orientation:
 ---------------------------------------------------------------------
 Center     Atomic      Atomic             Coordinates (Angstroms)
 Number     Number       Type             X           Y           Z
 ---------------------------------------------------------------------
      1          6           0       -2.110528   -1.025902    0.131047
      2          6           0       -1.036045    0.041493   -0.056697
      3          8           0       -1.618531    1.266998   -0.457950
      4          6           0        0.045245    0.065215    1.081130
      5          6           0        0.946035    1.228196    0.629505
      6          6           0        1.385419    0.503858   -0.659724
      7          8           0        2.106574   -0.638109   -0.099746
      8          6           0        0.803801   -1.096047    0.266801
      9          6           0        0.127245   -0.412399   -0.943042
     10          1           0       -2.693131   -1.145545   -0.787561
     11          1           0       -1.687749   -1.997432    0.401606
     12          1           0       -2.798400   -0.735016    0.935153
     13          1           0       -2.346756    1.466831    0.140216
     14          1           0       -0.227615   -0.029908    2.131542
     15          1           0        0.386401    2.148702    0.465192
     16          1           0        1.807781    1.405258    1.275307
     17          1           0        1.932501    1.032736   -1.437905
     18          1           0        0.739130   -2.138354    0.571037
     19          1           0        0.016457   -0.864868   -1.927133
 ---------------------------------------------------------------------

 SCF Done:  E(RB3LYP) =  -423.144100393     A.U. after    1 cycles

 The electronic state is 1-A.
 Alpha  occ. eigenvalues --  -19.14024 -19.12925 -10.24048 -10.23551 -10.23535
 Alpha  occ. eigenvalues --  -10.18771 -10.18667 -10.18396 -10.17458  -1.05169
 Alpha  occ. eigenvalues --   -1.02347  -0.84911  -0.74533  -0.70141  -0.68161
 Alpha  occ. eigenvalues --   -0.60932  -0.56629  -0.52487  -0.52120  -0.49200
 Alpha  occ. eigenvalues --   -0.46848  -0.45802  -0.42415  -0.40864  -0.39543
 Alpha  occ. eigenvalues --   -0.38043  -0.36043  -0.34308  -0.33688  -0.32160
 Alpha  occ. eigenvalues --   -0.30256  -0.29707  -0.26530  -0.23569
 Alpha virt. eigenvalues --    0.07022   0.09116   0.10468   0.11480   0.13278
 Alpha virt. eigenvalues --    0.14393   0.14640   0.15513   0.16734   0.17399
 Alpha virt. eigenvalues --    0.17987   0.18578   0.19083   0.20007   0.22817

 Mulliken charges:
               1
     1  C   -0.466036
     2  C    0.428367
     3  O   -0.481317
     4  C   -0.169493
     5  C   -0.213970
     6  C    0.059655
     7  O   -0.296488
     8  C    0.100725
     9  C   -0.109480
    10  H    0.126640
    11  H    0.125308
    12  H    0.107837
    13  H    0.275589
    14  H    0.059729
    15  H    0.111188
    16  H    0.100884
    17  H    0.082189
    18  H    0.085326
    19  H    0.073348
 Sum of Mulliken charges =   0.00000

 Dipole moment (field-independent basis, Debye):
    X=             -2.2208    Y=             -0.0799    Z=              0.8650  Tot=              2.3846
 Quadrupole moment (field-independent basis, Debye-Ang):
   XX=            -54.7427   YY=            -52.2637   ZZ=            -52.1911
   XY=              2.1245   XZ=             -2.8340   YZ=              1.1150

  Exact polarizability:  80.231   2.838  72.524  -1.998   0.546  67.847
 Approx polarizability: 112.691  -1.865 109.451  -2.929  -1.714 105.683

                      1                      2                      3
                      A                      A                      A
 Frequencies --    199.7344               236.2487               249.2692
 Red. masses --      3.7215                 1.1016                 2.6568
 Frc consts  --      0.0875                 0.0362                 0.0973
 IR Inten    --      1.4758                 0.1253                 0.3080

                      4                      5                      6
                      A                      A                      A
 Frequencies --    292.0590               340.3256               381.8889
 Red. masses --      1.0639                 3.0538                 3.9802
 Frc consts  --      0.0535                 0.2084                 0.3420
 IR Inten    --     88.7954                 3.3711                13.0169

                      7                      8                      9
                      A                      A                      A
 Frequencies --    487.0248               543.9877               558.0515
 Red. masses --      2.0469                 4.3008                 4.4545
 Frc consts  --      0.2861                 0.7499                 0.8173
 IR Inten    --      5.6044                 5.5994                 4.1210

                     10                     11                     12
                      A                      A                      A
 Frequencies --    598.0834               722.8252               749.1909
 Red. masses --      3.7769                 2.9885                 6.1370
 Frc consts  --      0.7960                 0.9200                 2.0295
 IR Inten    --      1.1455                 2.5329                 5.4505

                     13                     14                     15
                      A                      A                      A
 Frequencies --    808.1949               842.7163               855.7760
 Red. masses --      2.4141                 1.6702                 3.6978
 Frc consts  --      0.9291                 0.6988                 1.5956
 IR Inten    --      4.0524                 1.7391                18.8373

                     16                     17                     18
                      A                      A                      A
 Frequencies --    910.7030               919.3176               941.7769
 Red. masses --      2.4010                 2.9159                 2.2909
 Frc consts  --      1.1732                 1.4520                 1.1971
 IR Inten    --     13.3159                28.4344                 0.1980

                     19                     20                     21
                      A                      A                      A
 Frequencies --    950.3587               975.2807               986.1663
 Red. masses --      2.2847                 1.9562                 2.0211
 Frc consts  --      1.2158                 1.0963                 1.1581
 IR Inten    --     14.5273                 0.6477                11.2085

                     22                     23                     24
                      A                      A                      A
 Frequencies --   1002.3575              1035.4208              1073.1294
 Red. masses --      1.5672                 2.5196                 1.8515
 Frc consts  --      0.9277                 1.5915                 1.2563
 IR Inten    --     15.5903                23.3684                 4.1882

                     25                     26                     27
                      A                      A                      A
 Frequencies --   1105.4865              1120.6395              1152.4379
 Red. masses --      1.7770                 1.7830                 1.3982
 Frc consts  --      1.2795                 1.3192                 1.0941
 IR Inten    --     26.0439                13.2246                 6.2528

                     28                     29                     30
                      A                      A                      A
 Frequencies --   1166.4775              1178.3587              1209.6494
 Red. masses --      1.6912                 1.6644                 2.1493
 Frc consts  --      1.3558                 1.3616                 1.8529
 IR Inten    --     23.2711                 4.4793                68.1564

                     31                     32                     33
                      A                      A                      A
 Frequencies --   1219.1801              1237.0652              1255.1122
 Red. masses --      1.8996                 1.4990                 1.5264
 Frc consts  --      1.6636                 1.3515                 1.4167
 IR Inten    --      6.4180                 7.3273                36.5908

                     34                     35                     36
                      A                      A                      A
 Frequencies --   1287.8113              1310.2563              1336.7572
 Red. masses --      1.7140                 1.6555                 1.6010
 Frc consts  --      1.6748                 1.6746                 1.6856
 IR Inten    --      5.5280                 9.5299                11.3201

                     37                     38                     39
                      A                      A                      A
 Frequencies --   1395.3669              1413.6332              1475.6881
 Red. masses --      2.0638                 1.2528                 1.1075
 Frc consts  --      2.3676                 1.4750                 1.4210
 IR Inten    --     13.5267                 6.1842                 4.2965

                     40                     41                     42
                      A                      A                      A
 Frequencies --   1489.3379              1498.7678              3024.6028
 Red. masses --      1.0552                 1.0784                 1.0401
 Frc consts  --      1.3790                 1.4273                 5.6060
 IR Inten    --      3.3067                 4.4901                25.6080

                     43                     44                     45
                      A                      A                      A
 Frequencies --   3086.0358              3090.5228              3117.0017
 Red. masses --      1.0591                 1.0955                 1.1013
 Frc consts  --      5.9426                 6.1649                 6.3040
 IR Inten    --     22.0729                20.4713                15.5317

                     46                     47                     48
                      A                      A                      A
 Frequencies --   3122.1368              3129.6489              3140.3864
 Red. masses --      1.0895                 1.0895                 1.0901
 Frc consts  --      6.2574                 6.2871                 6.3339
 IR Inten    --     31.6864                20.2465                64.4728

                     49                     50                     51
                      A                      A                      A
 Frequencies --   3148.3150              3150.6863              3802.0393
 Red. masses --      1.0972                 1.1052                 1.0659
 Frc consts  --      6.4073                 6.4643                 9.0780
 IR Inten    --     21.4063                 6.9490                15.6929

 - Thermochemistry -
 -------------------
 Temperature   298.150 Kelvin.  Pressure   1.00000 Atm.
 Atom     1 has atomic number  6 and mass  12.00000

 Molecular mass:   126.06808 amu.
 Principal axes and moments of inertia in atomic units:
                           1         2         3
     Eigenvalues --   559.345901093.613941270.87790
           X            0.99821   0.05919  -0.00870
           Y           -0.05896   0.99797   0.02404
           Z            0.01010  -0.02349   0.99967
 This molecule is an asymmetric top.
 Rotational symmetry number  1.
 Warning -- assumption of classical behavior for rotation
           may cause significant error
 Rotational temperatures (Kelvin)      0.15485     0.07920     0.06815
 Rotational constants (GHZ):           3.22652     1.65025     1.42007
 Zero-point vibrational energy     420626.7 (Joules/Mol)
                                  100.53219 (Kcal/Mol)
 Warning -- explicit consideration of  10 degrees of freedom as
           vibrations may cause significant error
 Vibrational temperatures:    287.37   339.91   358.64   420.21   489.65
          (Kelvin)            549.45   700.72   782.68   802.91   860.51
                             1039.98  1077.92  1162.81  1212.48  1231.27
                             1310.30  1322.69  1355.01  1367.35  1403.21
                             1418.87  1442.17  1489.74  1543.99  1590.55
                             1612.35  1658.10  1678.30  1695.39  1740.41
                             1754.13  1779.86  1805.82  1852.87  1885.16
                             1923.29  2007.62  2033.90  2123.18  2142.82
                             2156.39  4351.72  4440.11  4446.57  4484.66
                             4492.05  4502.86  4518.31  4529.72  4533.13
                             5470.28

 Zero-point correction=                           0.160208 (Hartree/Particle)
 Thermal correction to Energy=                    0.167499
 Thermal correction to Enthalpy=                  0.168443
 Thermal correction to Gibbs Free Energy=         0.129120
 Sum of electronic and zero-point Energies=           -422.983892
 Sum of electronic and thermal Energies=              -422.976602
 Sum of electronic and thermal Enthalpies=            -422.975658
 Sum of electronic and thermal Free Energies=         -423.014981

                     E (Thermal)             CV                S
                      KCal/Mol        Cal/Mol-Kelvin    Cal/Mol-Kelvin
 Total                  105.107             30.537             82.762
 Electronic               0.000              0.000              0.000
 Translational            0.889              2.981             40.409
 Rotational               0.889              2.981             28.143
 Vibrational            103.329             24.576             14.210
 Vibration     1          0.638              1.840              2.136
 Vibration     2          0.655              1.785              1.831
 Vibration     3          0.662              1.764              1.736
 Vibration     4          0.687              1.689              1.462
 Vibration     5          0.720              1.595              1.211
 Vibration     6          0.751              1.509              1.032
 Vibration     7          0.843              1.279              0.691
 Vibration     8          0.899              1.153              0.557
 Vibration     9          0.914              1.122              0.528
 Vibration    10          0.956              1.036              0.453

 Normal termination of Gaussian 09 at Mon Jan 27 16:55:19 2020.
 Normal termination of Gaussian 09 at Mon Jan 27 16:10:22 2020.
