 Gaussian 09, Revision D.01,
 Gaussian 09:  ES64L-G09RevD.01 24-Apr-2013

 -----------------------------
 # b3lyp 6-31G(2df,p) opt Freq
 -----------------------------

 -----
 titel
 -----
 Symbolic Z-matrix:
 Charge =  0 Multiplicity = 1

 SCF Done:  E(RB3LYP) =  -423.214454691     A.U. after   14 cycles
 Optimization completed.
    -- Stationary point found.
 Normal termination of Gaussian 09 at Tue Jan 28 11:43:52 2020.

 ----------------------------------------------------------------------
 #N Geom=AllCheck Guess=TCheck SCRF=Check GenChk RB3LYP/6-31G(2df,p) Fr
 eq
 ----------------------------------------------------------------------

 Structure from the checkpoint file:  "/scratch/puck/g09_ec6b9ea8-85d9-49d4-9f76-fb6c025493ae/Gau-26501.chk"
 -----
 titel
 -----
 Charge =  0 Multiplicity = 1

                         Standard orientation:
 ---------------------------------------------------------------------
 Center     Atomic      Atomic             Coordinates (Angstroms)
 Number     Number       Type             X           Y           Z
 ---------------------------------------------------------------------
      1          6           0        3.216005   -0.557733   -0.070921
      2          6           0        2.196923    0.560689   -0.296305
      3          6           0        0.847874    0.283662    0.376814
      4          8           0        0.337186   -0.916883   -0.177146
      5          6           0       -0.974723   -1.235723    0.240684
      6          6           0       -1.980617   -0.127476   -0.067514
      7          8           0       -3.160199   -0.361555   -0.228880
      8          6           0       -1.414679    1.234516   -0.063506
      9          6           0       -0.118148    1.425636    0.206371
     10          1           0        3.433553   -0.684510    0.995545
     11          1           0        2.836112   -1.508271   -0.451973
     12          1           0        4.157761   -0.333560   -0.580047
     13          1           0        2.583037    1.510695    0.092226
     14          1           0        2.018411    0.702195   -1.368605
     15          1           0        1.024392    0.142808    1.463470
     16          1           0       -1.272084   -2.147845   -0.280882
     17          1           0       -1.012453   -1.438283    1.326837
     18          1           0       -2.109550    2.054138   -0.216493
     19          1           0        0.289118    2.428700    0.314383
 ---------------------------------------------------------------------

 SCF Done:  E(RB3LYP) =  -423.214454691     A.U. after    1 cycles

 The electronic state is 1-A.
 Alpha  occ. eigenvalues --  -19.15387 -19.12704 -10.26645 -10.25252 -10.23747
 Alpha  occ. eigenvalues --  -10.21654 -10.19851 -10.19467 -10.17878  -1.05380
 Alpha  occ. eigenvalues --   -1.03320  -0.82011  -0.79200  -0.73035  -0.67077
 Alpha  occ. eigenvalues --   -0.62352  -0.59991  -0.53343  -0.51269  -0.48905
 Alpha  occ. eigenvalues --   -0.46312  -0.45677  -0.42864  -0.42411  -0.41768
 Alpha  occ. eigenvalues --   -0.39566  -0.38709  -0.36823  -0.35222  -0.34899
 Alpha  occ. eigenvalues --   -0.32709  -0.29003  -0.27645  -0.23421
 Alpha virt. eigenvalues --   -0.05637   0.05017   0.08377   0.10803   0.11700
 Alpha virt. eigenvalues --    0.12913   0.13874   0.15222   0.15638   0.16443
 Alpha virt. eigenvalues --    0.17308   0.18199   0.20265   0.20703   0.22321

 Mulliken charges:
               1
     1  C   -0.386666
     2  C   -0.191849
     3  C    0.088967
     4  O   -0.257706
     5  C   -0.189101
     6  C    0.351757
     7  O   -0.320322
     8  C   -0.179705
     9  C   -0.055361
    10  H    0.112934
    11  H    0.140579
    12  H    0.114584
    13  H    0.098717
    14  H    0.114198
    15  H    0.081262
    16  H    0.137746
    17  H    0.110858
    18  H    0.113947
    19  H    0.115160
 Sum of Mulliken charges =   0.00000

 Dipole moment (field-independent basis, Debye):
    X=              2.9102    Y=              1.4627    Z=              1.0782  Tot=              3.4310
 Quadrupole moment (field-independent basis, Debye-Ang):
   XX=            -63.4763   YY=            -50.1381   ZZ=            -52.7903
   XY=              0.0245   XZ=             -0.8703   YZ=             -0.4412

  Exact polarizability: 107.140   5.628  76.519   4.553  -0.450  56.510
 Approx polarizability: 157.245  16.900 110.034  11.801   2.562  90.105

                      1                      2                      3
                      A                      A                      A
 Frequencies --     61.9224               109.9408               164.6017
 Red. masses --      5.2354                 1.9570                 3.7786
 Frc consts  --      0.0118                 0.0139                 0.0603
 IR Inten    --      1.8994                 0.3601                 2.9334

                      4                      5                      6
                      A                      A                      A
 Frequencies --    196.6590               239.8103               295.8606
 Red. masses --      1.5125                 1.7179                 2.8558
 Frc consts  --      0.0345                 0.0582                 0.1473
 IR Inten    --      2.1526                 2.5476                 0.5255

                      7                      8                      9
                      A                      A                      A
 Frequencies --    366.0338               416.4907               423.8391
 Red. masses --      3.9826                 2.7862                 5.8094
 Frc consts  --      0.3144                 0.2848                 0.6149
 IR Inten    --      1.5803                 1.6320                17.4128

                     10                     11                     12
                      A                      A                      A
 Frequencies --    515.1920               546.6438               608.2424
 Red. masses --      3.3077                 3.0266                 3.1764
 Frc consts  --      0.5173                 0.5329                 0.6924
 IR Inten    --      3.7531                 0.4661                 0.7189

                     13                     14                     15
                      A                      A                      A
 Frequencies --    743.7211               758.9032               773.6885
 Red. masses --      5.5410                 1.9272                 1.2428
 Frc consts  --      1.8058                 0.6540                 0.4383
 IR Inten    --      4.8235                 7.4670                 7.1004

                     16                     17                     18
                      A                      A                      A
 Frequencies --    858.7971               893.6965               963.4356
 Red. masses --      2.9552                 1.8640                 2.2042
 Frc consts  --      1.2842                 0.8772                 1.2054
 IR Inten    --      8.5161                27.6467                 3.9050

                     19                     20                     21
                      A                      A                      A
 Frequencies --    992.9803              1016.5519              1025.2702
 Red. masses --      2.0833                 1.5343                 2.0120
 Frc consts  --      1.2103                 0.9342                 1.2461
 IR Inten    --      6.8033                 1.4039                 4.0040

                     22                     23                     24
                      A                      A                      A
 Frequencies --   1061.5118              1107.5874              1131.5583
 Red. masses --      2.0135                 1.9342                 2.2299
 Frc consts  --      1.3367                 1.3980                 1.6823
 IR Inten    --      4.4078                15.3293                65.7522

                     25                     26                     27
                      A                      A                      A
 Frequencies --   1155.4322              1183.8398              1246.8252
 Red. masses --      2.0762                 2.0762                 1.5606
 Frc consts  --      1.6331                 1.7143                 1.4294
 IR Inten    --      6.3120                17.7871                25.6532

                     28                     29                     30
                      A                      A                      A
 Frequencies --   1272.3171              1291.2176              1313.2293
 Red. masses --      1.4330                 1.4803                 1.1853
 Frc consts  --      1.3667                 1.4541                 1.2043
 IR Inten    --     37.9847                15.7708                 7.8841

                     31                     32                     33
                      A                      A                      A
 Frequencies --   1347.1871              1376.3494              1386.8264
 Red. masses --      1.3233                 1.4487                 1.5006
 Frc consts  --      1.4150                 1.6169                 1.7004
 IR Inten    --     16.2911                 5.4786                 1.7154

                     34                     35                     36
                      A                      A                      A
 Frequencies --   1404.7040              1411.2495              1468.5834
 Red. masses --      1.6901                 1.2860                 1.0835
 Frc consts  --      1.9648                 1.5091                 1.3768
 IR Inten    --     10.4118                 2.2206                 6.3278

                     37                     38                     39
                      A                      A                      A
 Frequencies --   1477.5322              1495.1379              1508.2486
 Red. masses --      1.0798                 1.0410                 1.0574
 Frc consts  --      1.3889                 1.3710                 1.4172
 IR Inten    --      0.2708                 5.1504                 4.1945

                     40                     41                     42
                      A                      A                      A
 Frequencies --   1678.9803              1790.5239              2889.2836
 Red. masses --      7.4823                11.7202                 1.0783
 Frc consts  --     12.4272                22.1383                 5.3034
 IR Inten    --     11.2444               234.7385                39.8520

                     43                     44                     45
                      A                      A                      A
 Frequencies --   2946.0394              3033.7548              3039.3546
 Red. masses --      1.0705                 1.0596                 1.0388
 Frc consts  --      5.4742                 5.7460                 5.6539
 IR Inten    --     40.9986                19.0141                25.8525

                     46                     47                     48
                      A                      A                      A
 Frequencies --   3073.1387              3105.6977              3113.9617
 Red. masses --      1.1008                 1.1002                 1.0904
 Frc consts  --      6.1255                 6.2525                 6.2297
 IR Inten    --     14.1904                35.7855                12.3193

                     49                     50                     51
                      A                      A                      A
 Frequencies --   3131.8499              3152.9683              3190.3379
 Red. masses --      1.1008                 1.0871                 1.0960
 Frc consts  --      6.3614                 6.3676                 6.5728
 IR Inten    --     17.6133                 9.0172                 7.8238

 - Thermochemistry -
 -------------------
 Temperature   298.150 Kelvin.  Pressure   1.00000 Atm.
 Atom     1 has atomic number  6 and mass  12.00000

 Molecular mass:   126.06808 amu.
 Principal axes and moments of inertia in atomic units:
                           1         2         3
     Eigenvalues --   431.617521797.439222136.01111
           X            0.99998  -0.00504  -0.00330
           Y            0.00499   0.99988  -0.01455
           Z            0.00337   0.01453   0.99989
 This molecule is an asymmetric top.
 Rotational symmetry number  1.
 Rotational temperatures (Kelvin)      0.20067     0.04819     0.04055
 Rotational constants (GHZ):           4.18134     1.00406     0.84491
 Zero-point vibrational energy     417242.6 (Joules/Mol)
                                   99.72336 (Kcal/Mol)
 Warning -- explicit consideration of  12 degrees of freedom as
           vibrations may cause significant error
 Vibrational temperatures:     89.09   158.18   236.82   282.95   345.03
          (Kelvin)            425.68   526.64   599.24   609.81   741.25
                              786.50   875.12  1070.05  1091.89  1113.16
                             1235.62  1285.83  1386.17  1428.68  1462.59
                             1475.13  1527.28  1593.57  1628.06  1662.41
                             1703.28  1793.90  1830.58  1857.77  1889.44
                             1938.30  1980.26  1995.33  2021.05  2030.47
                             2112.96  2125.84  2151.17  2170.03  2415.68
                             2576.16  4157.03  4238.69  4364.89  4372.95
                             4421.56  4468.40  4480.29  4506.03  4536.41
                             4590.18

 Zero-point correction=                           0.158919 (Hartree/Particle)
 Thermal correction to Energy=                    0.167639
 Thermal correction to Enthalpy=                  0.168584
 Thermal correction to Gibbs Free Energy=         0.125189
 Sum of electronic and zero-point Energies=           -423.055535
 Sum of electronic and thermal Energies=              -423.046815
 Sum of electronic and thermal Enthalpies=            -423.045871
 Sum of electronic and thermal Free Energies=         -423.089266

                     E (Thermal)             CV                S
                      KCal/Mol        Cal/Mol-Kelvin    Cal/Mol-Kelvin
 Total                  105.195             32.450             91.333
 Electronic               0.000              0.000              0.000
 Translational            0.889              2.981             40.409
 Rotational               0.889              2.981             28.895
 Vibrational            103.418             26.488             22.029
 Vibration     1          0.597              1.972              4.395
 Vibration     2          0.606              1.941              3.270
 Vibration     3          0.623              1.886              2.496
 Vibration     4          0.636              1.845              2.164
 Vibration     5          0.657              1.780              1.804
 Vibration     6          0.690              1.681              1.440
 Vibration     7          0.739              1.542              1.096
 Vibration     8          0.780              1.434              0.904
 Vibration     9          0.786              1.418              0.879
 Vibration    10          0.870              1.216              0.621
 Vibration    11          0.902              1.147              0.551
 Vibration    12          0.967              1.014              0.436

 Optimization completed.
    -- Stationary point found.
 Normal termination of Gaussian 09 at Tue Jan 28 12:23:42 2020.
