 Gaussian 09, Revision D.01,
 Gaussian 09:  ES64L-G09RevD.01 24-Apr-2013

 -----------------------------
 # b3lyp 6-31G(2df,p) opt Freq
 -----------------------------

 -----
 titel
 -----
 Symbolic Z-matrix:
 Charge =  0 Multiplicity = 1

 SCF Done:  E(RB3LYP) =  -423.108722983     A.U. after   14 cycles
 Optimization completed.
    -- Stationary point found.
 Normal termination of Gaussian 09 at Tue Jan 28 13:29:02 2020.

 ----------------------------------------------------------------------
 #N Geom=AllCheck Guess=TCheck SCRF=Check GenChk RB3LYP/6-31G(2df,p) Fr
 eq
 ----------------------------------------------------------------------

 Structure from the checkpoint file:  "/scratch/puck/g09_b2a5c7bb-4b8d-446b-a686-4b67164f952a/Gau-109086.chk"
 -----
 titel
 -----
 Charge =  0 Multiplicity = 1

                         Standard orientation:
 ---------------------------------------------------------------------
 Center     Atomic      Atomic             Coordinates (Angstroms)
 Number     Number       Type             X           Y           Z
 ---------------------------------------------------------------------
      1          8           0       -1.049985    1.982094    0.685282
      2          6           0       -1.898892    1.066561    0.005977
      3          6           0       -1.141926   -0.105674   -0.569821
      4          6           0       -1.634966   -1.537546   -0.467482
      5          6           0       -0.480081   -1.084353    0.364126
      6          8           0        0.779056   -1.603081    0.043306
      7          6           0        1.851282   -0.822111    0.541033
      8          6           0        2.036390    0.472001   -0.129443
      9          6           0        2.227359    1.527074   -0.675690
     10          1           0       -0.191598    1.971112    0.246051
     11          1           0       -2.632691    0.718727    0.743885
     12          1           0       -2.465554    1.574277   -0.791147
     13          1           0       -0.568371    0.108927   -1.466881
     14          1           0       -2.576036   -1.734555    0.034776
     15          1           0       -1.414357   -2.196549   -1.299398
     16          1           0       -0.639434   -0.940629    1.433538
     17          1           0        1.734581   -0.651830    1.622728
     18          1           0        2.751966   -1.428896    0.400910
     19          1           0        2.413932    2.451599   -1.165375
 ---------------------------------------------------------------------

 SCF Done:  E(RB3LYP) =  -423.108722983     A.U. after    1 cycles

 The electronic state is 1-A.
 Alpha  occ. eigenvalues --  -19.15794 -19.12056 -10.26375 -10.23721 -10.22346
 Alpha  occ. eigenvalues --  -10.19954 -10.19202 -10.18991 -10.18839  -1.05229
 Alpha  occ. eigenvalues --   -1.00264  -0.85830  -0.77965  -0.71167  -0.68328
 Alpha  occ. eigenvalues --   -0.60216  -0.58703  -0.55197  -0.51909  -0.50744
 Alpha  occ. eigenvalues --   -0.48199  -0.47052  -0.44521  -0.43449  -0.40493
 Alpha  occ. eigenvalues --   -0.39277  -0.36910  -0.33914  -0.31485  -0.29916
 Alpha  occ. eigenvalues --   -0.28436  -0.28080  -0.25954  -0.25050
 Alpha virt. eigenvalues --    0.02016   0.03911   0.09398   0.09598   0.10786
 Alpha virt. eigenvalues --    0.11216   0.12145   0.15290   0.15596   0.16202
 Alpha virt. eigenvalues --    0.16943   0.17645   0.18491   0.20547   0.22085

 Mulliken charges:
               1
     1  O   -0.431348
     2  C   -0.065801
     3  C   -0.073835
     4  C   -0.335372
     5  C    0.127292
     6  O   -0.234968
     7  C   -0.227837
     8  C    0.330962
     9  C   -0.477275
    10  H    0.282716
    11  H    0.094439
    12  H    0.086953
    13  H    0.102795
    14  H    0.116757
    15  H    0.125801
    16  H    0.095037
    17  H    0.129561
    18  H    0.143791
    19  H    0.210332
 Sum of Mulliken charges =   0.00000

 Dipole moment (field-independent basis, Debye):
    X=              0.7856    Y=             -0.3784    Z=             -0.5926  Tot=              1.0543
 Quadrupole moment (field-independent basis, Debye-Ang):
   XX=            -49.7593   YY=            -55.9401   ZZ=            -52.5725
   XY=              4.3066   XZ=              1.1477   YZ=             -5.2596

  Exact polarizability:  82.930   5.539  84.276  -0.317  -6.823  63.438
 Approx polarizability: 106.834   8.212 131.235  -2.048 -15.357  99.979

                      1                      2                      3
                      A                      A                      A
 Frequencies --     58.5238                86.3509               103.0952
 Red. masses --      3.8344                 4.1000                 3.3333
 Frc consts  --      0.0077                 0.0180                 0.0209
 IR Inten    --      5.8579                 0.7761                 3.5274

                      4                      5                      6
                      A                      A                      A
 Frequencies --    128.5889               205.1904               261.1443
 Red. masses --      4.0742                 3.8640                 2.6884
 Frc consts  --      0.0397                 0.0959                 0.1080
 IR Inten    --      2.0063                 3.8722                 4.8464

                      7                      8                      9
                      A                      A                      A
 Frequencies --    287.0384               327.4174               337.2760
 Red. masses --      1.1651                 2.4047                 2.9524
 Frc consts  --      0.0566                 0.1519                 0.1979
 IR Inten    --     76.2851                 6.6968                 5.3695

                     10                     11                     12
                      A                      A                      A
 Frequencies --    412.7667               427.7554               501.9401
 Red. masses --      3.4743                 2.9211                 3.7512
 Frc consts  --      0.3488                 0.3149                 0.5568
 IR Inten    --      2.4723                 2.3830                 7.9106

                     13                     14                     15
                      A                      A                      A
 Frequencies --    614.5945               621.2554               678.9604
 Red. masses --      5.2281                 1.2320                 1.2408
 Frc consts  --      1.1635                 0.2802                 0.3370
 IR Inten    --     11.0721                46.3186                41.7239

                     16                     17                     18
                      A                      A                      A
 Frequencies --    803.1919               812.6081               898.8507
 Red. masses --      1.6387                 1.9529                 1.8107
 Frc consts  --      0.6229                 0.7598                 0.8619
 IR Inten    --      5.4786                 5.5272                 4.7800

                     19                     20                     21
                      A                      A                      A
 Frequencies --    919.5159               962.5684               982.2150
 Red. masses --      4.2246                 3.2087                 1.9078
 Frc consts  --      2.1045                 1.7516                 1.0844
 IR Inten    --     16.7919                10.8327                18.3223

                     22                     23                     24
                      A                      A                      A
 Frequencies --   1023.5184              1046.4530              1059.9008
 Red. masses --      1.8913                 2.1351                 3.6668
 Frc consts  --      1.1674                 1.3776                 2.4270
 IR Inten    --     38.1205                22.8256                 2.8910

                     25                     26                     27
                      A                      A                      A
 Frequencies --   1074.7819              1109.1998              1115.8068
 Red. masses --      1.8265                 1.2686                 2.2060
 Frc consts  --      1.2431                 0.9196                 1.6182
 IR Inten    --     39.1406                 5.2827                79.4997

                     28                     29                     30
                      A                      A                      A
 Frequencies --   1150.7172              1183.6888              1236.6977
 Red. masses --      1.5963                 2.2053                 1.5914
 Frc consts  --      1.2454                 1.8205                 1.4340
 IR Inten    --      8.3387                73.3189                12.5640

                     31                     32                     33
                      A                      A                      A
 Frequencies --   1254.2342              1299.2948              1341.9457
 Red. masses --      1.3481                 1.1999                 1.1927
 Frc consts  --      1.2494                 1.1934                 1.2654
 IR Inten    --      9.0940                29.7509                 5.0304

                     34                     35                     36
                      A                      A                      A
 Frequencies --   1356.2707              1390.5652              1424.6299
 Red. masses --      1.2525                 1.2919                 1.2396
 Frc consts  --      1.3574                 1.4719                 1.4824
 IR Inten    --      4.9752                20.9678                22.3755

                     37                     38                     39
                      A                      A                      A
 Frequencies --   1444.7667              1472.7033              1491.8224
 Red. masses --      1.3488                 1.0878                 1.6270
 Frc consts  --      1.6587                 1.3900                 2.1334
 IR Inten    --     35.2377                 2.1915                28.8600

                     40                     41                     42
                      A                      A                      A
 Frequencies --   1521.4268              2222.9610              2973.5595
 Red. masses --      1.1054                 5.8932                 1.0703
 Frc consts  --      1.5075                17.1580                 5.5759
 IR Inten    --      1.2088                 2.9822                84.3489

                     43                     44                     45
                      A                      A                      A
 Frequencies --   2988.2508              3040.4209              3073.9848
 Red. masses --      1.0686                 1.0918                 1.0912
 Frc consts  --      5.6220                 5.9463                 6.0753
 IR Inten    --     31.0446                30.6979                13.4184

                     46                     47                     48
                      A                      A                      A
 Frequencies --   3097.1185              3136.8123              3156.5182
 Red. masses --      1.0869                 1.0552                 1.0877
 Frc consts  --      6.1426                 6.1174                 6.3851
 IR Inten    --     20.2448                11.0665                 8.4785

                     49                     50                     51
                      A                      A                      A
 Frequencies --   3226.8543              3497.1029              3785.1042
 Red. masses --      1.1163                 1.1623                 1.0666
 Frc consts  --      6.8484                 8.3748                 9.0037
 IR Inten    --      5.9368                63.4736                83.7617

 - Thermochemistry -
 -------------------
 Temperature   298.150 Kelvin.  Pressure   1.00000 Atm.
 Atom     1 has atomic number  8 and mass  15.99491

 Molecular mass:   126.06808 amu.
 Principal axes and moments of inertia in atomic units:
                           1         2         3
     Eigenvalues --   926.166351238.456381906.55499
           X            0.99943   0.03239   0.00964
           Y           -0.03221   0.99932  -0.01799
           Z           -0.01022   0.01767   0.99979
 This molecule is an asymmetric top.
 Rotational symmetry number  1.
 Warning -- assumption of classical behavior for rotation
           may cause significant error
 Rotational temperatures (Kelvin)      0.09352     0.06994     0.04543
 Rotational constants (GHZ):           1.94861     1.45725     0.94660
 Zero-point vibrational energy     410486.3 (Joules/Mol)
                                   98.10859 (Kcal/Mol)
 Warning -- explicit consideration of  13 degrees of freedom as
           vibrations may cause significant error
 Vibrational temperatures:     84.20   124.24   148.33   185.01   295.22
          (Kelvin)            375.73   412.98   471.08   485.26   593.88
                              615.44   722.18   884.26   893.85   976.87
                             1155.61  1169.16  1293.24  1322.98  1384.92
                             1413.19  1472.61  1505.61  1524.96  1546.37
                             1595.89  1605.40  1655.62  1703.06  1779.33
                             1804.56  1869.39  1930.76  1951.37  2000.71
                             2049.72  2078.69  2118.89  2146.40  2188.99
                             3198.34  4278.28  4299.42  4374.48  4422.77
                             4456.06  4513.17  4541.52  4642.72  5031.54
                             5445.91

 Zero-point correction=                           0.156346 (Hartree/Particle)
 Thermal correction to Energy=                    0.166254
 Thermal correction to Enthalpy=                  0.167198
 Thermal correction to Gibbs Free Energy=         0.121038
 Sum of electronic and zero-point Energies=           -422.952377
 Sum of electronic and thermal Energies=              -422.942469
 Sum of electronic and thermal Enthalpies=            -422.941525
 Sum of electronic and thermal Free Energies=         -422.987685

                     E (Thermal)             CV                S
                      KCal/Mol        Cal/Mol-Kelvin    Cal/Mol-Kelvin
 Total                  104.326             35.866             97.153
 Electronic               0.000              0.000              0.000
 Translational            0.889              2.981             40.409
 Rotational               0.889              2.981             29.171
 Vibrational            102.548             29.905             27.573
 Vibration     1          0.596              1.974              4.506
 Vibration     2          0.601              1.959              3.741
 Vibration     3          0.605              1.947              3.395
 Vibration     4          0.611              1.925              2.967
 Vibration     5          0.640              1.833              2.086
 Vibration     6          0.669              1.744              1.654
 Vibration     7          0.684              1.698              1.491
 Vibration     8          0.711              1.621              1.273
 Vibration     9          0.718              1.601              1.225
 Vibration    10          0.777              1.443              0.917
 Vibration    11          0.789              1.410              0.866
 Vibration    12          0.857              1.246              0.653
 Vibration    13          0.974              1.001              0.425

 Normal termination of Gaussian 09 at Tue Jan 28 14:08:25 2020.
