 Gaussian 09, Revision D.01,
 Gaussian 09:  ES64L-G09RevD.01 24-Apr-2013

 -----------------------------
 # b3lyp 6-31G(2df,p) opt Freq
 -----------------------------

 -----
 titel
 -----
 Symbolic Z-matrix:
 Charge =  0 Multiplicity = 1

 SCF Done:  E(RB3LYP) =  -423.149988827     A.U. after   14 cycles
 Optimization completed.
    -- Stationary point found.
 Normal termination of Gaussian 09 at Mon Jan 27 17:14:12 2020.

 ----------------------------------------------------------------------
 #N Geom=AllCheck Guess=TCheck SCRF=Check GenChk RB3LYP/6-31G(2df,p) Fr
 eq
 ----------------------------------------------------------------------

 Structure from the checkpoint file:  "/scratch/puck/g09_66948cf5-9be5-4c4c-a95e-3ebb0585e27f/Gau-62691.chk"
 -----
 titel
 -----
 Charge =  0 Multiplicity = 1

                         Standard orientation:
 ---------------------------------------------------------------------
 Center     Atomic      Atomic             Coordinates (Angstroms)
 Number     Number       Type             X           Y           Z
 ---------------------------------------------------------------------
      1          6           0        0.802616    1.982292    0.598802
      2          6           0        0.601147    0.556183    0.178241
      3          8           0        0.752216    0.299785   -1.274167
      4          6           0        0.073802   -0.965042   -0.960850
      5          6           0        1.054110   -1.624385   -0.003659
      6          6           0        1.411372   -0.592652    0.769366
      7          6           0       -0.847476   -0.117600    0.015254
      8          6           0       -1.608934   -0.723957    1.174422
      9          8           0       -1.735456    0.714873   -0.672015
     10          1           0        0.020417    2.620122    0.177614
     11          1           0        0.764648    2.067521    1.689410
     12          1           0        1.775837    2.349818    0.259308
     13          1           0       -0.314095   -1.495849   -1.829719
     14          1           0        1.321115   -2.669724    0.044849
     15          1           0        2.057900   -0.548561    1.634122
     16          1           0       -2.468630   -1.284199    0.794325
     17          1           0       -0.987747   -1.388450    1.773656
     18          1           0       -1.996011    0.075793    1.813363
     19          1           0       -1.227332    1.067233   -1.416918
 ---------------------------------------------------------------------

 SCF Done:  E(RB3LYP) =  -423.149988827     A.U. after    1 cycles

 The electronic state is 1-A.
 Alpha  occ. eigenvalues --  -19.13834 -19.13521 -10.24598 -10.24221 -10.23711
 Alpha  occ. eigenvalues --  -10.18732 -10.18609 -10.18211 -10.17426  -1.06219
 Alpha  occ. eigenvalues --   -1.00874  -0.81019  -0.75473  -0.73798  -0.66057
 Alpha  occ. eigenvalues --   -0.63823  -0.55354  -0.54636  -0.50422  -0.49811
 Alpha  occ. eigenvalues --   -0.45604  -0.43544  -0.42197  -0.40447  -0.39721
 Alpha  occ. eigenvalues --   -0.38435  -0.37280  -0.36345  -0.35037  -0.34212
 Alpha  occ. eigenvalues --   -0.33694  -0.25778  -0.25460  -0.24139
 Alpha virt. eigenvalues --   -0.00290   0.09307   0.09789   0.12266   0.13016
 Alpha virt. eigenvalues --    0.13823   0.14092   0.14995   0.15975   0.16343
 Alpha virt. eigenvalues --    0.17050   0.18642   0.20311   0.20940   0.23037

 Mulliken charges:
               1
     1  C   -0.516427
     2  C    0.299268
     3  O   -0.347903
     4  C   -0.067487
     5  C   -0.085768
     6  C   -0.130152
     7  C    0.443592
     8  C   -0.465454
     9  O   -0.485718
    10  H    0.129197
    11  H    0.125070
    12  H    0.135477
    13  H    0.079917
    14  H    0.112576
    15  H    0.109612
    16  H    0.128140
    17  H    0.123300
    18  H    0.127828
    19  H    0.284934
 Sum of Mulliken charges =   0.00000

 Dipole moment (field-independent basis, Debye):
    X=              0.5066    Y=             -0.7478    Z=              1.2085  Tot=              1.5088
 Quadrupole moment (field-independent basis, Debye-Ang):
   XX=            -57.1124   YY=            -49.3978   ZZ=            -52.0579
   XY=              1.0412   XZ=              2.7007   YZ=              1.1021

  Exact polarizability:  74.067  -0.431  81.184   4.750   3.783  70.237
 Approx polarizability: 110.209  -0.123 121.871   9.364   8.755 112.089

                      1                      2                      3
                      A                      A                      A
 Frequencies --    180.6358               186.2551               201.9595
 Red. masses --      1.3668                 1.1205                 1.5011
 Frc consts  --      0.0263                 0.0229                 0.0361
 IR Inten    --      0.4835                 0.0244                 0.2996

                      4                      5                      6
                      A                      A                      A
 Frequencies --    235.2628               272.7882               329.3151
 Red. masses --      3.2692                 3.0763                 2.7103
 Frc consts  --      0.1066                 0.1349                 0.1732
 IR Inten    --      0.9188                 4.4989                 1.2111

                      7                      8                      9
                      A                      A                      A
 Frequencies --    397.1087               417.6893               507.7047
 Red. masses --      3.4052                 3.2285                 3.2786
 Frc consts  --      0.3164                 0.3319                 0.4979
 IR Inten    --      5.7455                 7.4310                 6.2519

                     10                     11                     12
                      A                      A                      A
 Frequencies --    568.4761               615.9323               630.7406
 Red. masses --      2.8092                 4.1689                 1.1780
 Frc consts  --      0.5349                 0.9318                 0.2761
 IR Inten    --      0.6574                 9.4124                71.1320

                     13                     14                     15
                      A                      A                      A
 Frequencies --    649.8697               659.2099               729.8183
 Red. masses --      2.6929                 2.9562                 2.5586
 Frc consts  --      0.6701                 0.7569                 0.8029
 IR Inten    --      3.4131                 7.4782                15.5948

                     16                     17                     18
                      A                      A                      A
 Frequencies --    741.2093               800.8021               852.1412
 Red. masses --      3.0179                 3.7525                 3.1327
 Frc consts  --      0.9769                 1.4178                 1.3403
 IR Inten    --     17.3004                23.8943                26.9578

                     19                     20                     21
                      A                      A                      A
 Frequencies --    887.4796               907.5337               924.1066
 Red. masses --      1.9169                 1.5056                 2.2751
 Frc consts  --      0.8895                 0.7306                 1.1447
 IR Inten    --      3.3656                 3.9950                12.1485

                     22                     23                     24
                      A                      A                      A
 Frequencies --    964.4553               978.1036              1063.4310
 Red. masses --      2.4054                 2.3130                 1.3494
 Frc consts  --      1.3183                 1.3038                 0.8991
 IR Inten    --     19.4697                11.1972                 9.5660

                     25                     26                     27
                      A                      A                      A
 Frequencies --   1096.6980              1106.0246              1124.9958
 Red. masses --      1.9422                 1.6644                 1.9789
 Frc consts  --      1.3763                 1.1996                 1.4756
 IR Inten    --     45.2381                13.1651                 6.1184

                     28                     29                     30
                      A                      A                      A
 Frequencies --   1154.2895              1170.1992              1245.7555
 Red. masses --      2.0274                 1.7987                 2.8389
 Frc consts  --      1.5916                 1.4512                 2.5958
 IR Inten    --     19.2002                30.1007                81.4845

                     31                     32                     33
                      A                      A                      A
 Frequencies --   1258.2409              1300.0976              1340.5809
 Red. masses --      1.5898                 1.8270                 2.2509
 Frc consts  --      1.4829                 1.8195                 2.3833
 IR Inten    --      7.7146                 3.3110                16.7260

                     34                     35                     36
                      A                      A                      A
 Frequencies --   1385.4308              1412.2211              1435.1886
 Red. masses --      1.3016                 1.4724                 1.8754
 Frc consts  --      1.4720                 1.7301                 2.2759
 IR Inten    --     61.2113                16.2060                73.6840

                     37                     38                     39
                      A                      A                      A
 Frequencies --   1480.8085              1486.7419              1491.4475
 Red. masses --      1.0481                 1.0482                 1.0463
 Frc consts  --      1.3542                 1.3651                 1.3713
 IR Inten    --      4.2342                 3.1086                 0.9659

                     40                     41                     42
                      A                      A                      A
 Frequencies --   1494.7184              1608.3722              3040.7941
 Red. masses --      1.0623                 6.0195                 1.0350
 Frc consts  --      1.3984                 9.1746                 5.6383
 IR Inten    --      6.3344                 0.7943                15.9780

                     43                     44                     45
                      A                      A                      A
 Frequencies --   3050.2747              3109.8684              3112.4922
 Red. masses --      1.0381                 1.1004                 1.1009
 Frc consts  --      5.6906                 6.2705                 6.2834
 IR Inten    --     16.9722                12.2617                12.6088

                     46                     47                     48
                      A                      A                      A
 Frequencies --   3117.3687              3131.9516              3156.3930
 Red. masses --      1.1017                 1.0912                 1.0990
 Frc consts  --      6.3077                 6.3063                 6.4510
 IR Inten    --     10.1243                34.4934                11.3683

                     49                     50                     51
                      A                      A                      A
 Frequencies --   3225.5531              3252.7613              3740.3992
 Red. masses --      1.0871                 1.1103                 1.0636
 Frc consts  --      6.6640                 6.9214                 8.7670
 IR Inten    --      2.6119                 5.8893                28.8902

 - Thermochemistry -
 -------------------
 Temperature   298.150 Kelvin.  Pressure   1.00000 Atm.
 Atom     1 has atomic number  6 and mass  12.00000

 Molecular mass:   126.06808 amu.
 Principal axes and moments of inertia in atomic units:
                           1         2         3
     Eigenvalues --   839.18470 929.463741121.78940
           X            0.98232   0.18718   0.00310
           Y           -0.18720   0.98196   0.02669
           Z            0.00195  -0.02680   0.99964
 This molecule is an asymmetric top.
 Rotational symmetry number  1.
 Warning -- assumption of classical behavior for rotation
           may cause significant error
 Rotational temperatures (Kelvin)      0.10321     0.09319     0.07721
 Rotational constants (GHZ):           2.15059     1.94170     1.60881
 Zero-point vibrational energy     414097.5 (Joules/Mol)
                                   98.97168 (Kcal/Mol)
 Warning -- explicit consideration of  11 degrees of freedom as
           vibrations may cause significant error
 Vibrational temperatures:    259.89   267.98   290.57   338.49   392.48
          (Kelvin)            473.81   571.35   600.96   730.47   817.91
                              886.19   907.49   935.02   948.45  1050.04
                             1066.43  1152.17  1226.04  1276.88  1305.74
                             1329.58  1387.63  1407.27  1530.04  1577.90
                             1591.32  1618.62  1660.76  1683.65  1792.36
                             1810.33  1870.55  1928.79  1993.32  2031.87
                             2064.91  2130.55  2139.09  2145.86  2150.56
                             2314.09  4375.02  4388.66  4474.40  4478.18
                             4485.19  4506.17  4541.34  4640.85  4679.99
                             5381.59

 Zero-point correction=                           0.157721 (Hartree/Particle)
 Thermal correction to Energy=                    0.166010
 Thermal correction to Enthalpy=                  0.166954
 Thermal correction to Gibbs Free Energy=         0.125747
 Sum of electronic and zero-point Energies=           -422.992267
 Sum of electronic and thermal Energies=              -422.983979
 Sum of electronic and thermal Enthalpies=            -422.983035
 Sum of electronic and thermal Free Energies=         -423.024242

                     E (Thermal)             CV                S
                      KCal/Mol        Cal/Mol-Kelvin    Cal/Mol-Kelvin
 Total                  104.173             33.619             86.727
 Electronic               0.000              0.000              0.000
 Translational            0.889              2.981             40.409
 Rotational               0.889              2.981             28.261
 Vibrational            102.395             27.657             18.057
 Vibration     1          0.630              1.866              2.322
 Vibration     2          0.632              1.859              2.265
 Vibration     3          0.639              1.837              2.115
 Vibration     4          0.655              1.787              1.838
 Vibration     5          0.676              1.723              1.578
 Vibration     6          0.712              1.617              1.263
 Vibration     7          0.764              1.476              0.973
 Vibration     8          0.781              1.432              0.900
 Vibration     9          0.863              1.233              0.639
 Vibration    10          0.924              1.099              0.507
 Vibration    11          0.976              0.998              0.423

 Optimization completed.
    -- Stationary point found.
 Normal termination of Gaussian 09 at Mon Jan 27 17:57:49 2020.
