 Gaussian 09, Revision D.01,
 Gaussian 09:  ES64L-G09RevD.01 24-Apr-2013

 -----------------------------
 # b3lyp 6-31G(2df,p) opt Freq
 -----------------------------

 -----
 titel
 -----
 Symbolic Z-matrix:
 Charge =  0 Multiplicity = 1

 SCF Done:  E(RB3LYP) =  -423.157604183     A.U. after   13 cycles
 Optimization completed.
    -- Stationary point found.
 Normal termination of Gaussian 09 at Tue Jan 28 03:37:07 2020.

 ----------------------------------------------------------------------
 #N Geom=AllCheck Guess=TCheck SCRF=Check GenChk RB3LYP/6-31G(2df,p) Fr
 eq
 ----------------------------------------------------------------------

 Structure from the checkpoint file:  "/scratch/puck/g09_0b9a49be-065c-496f-b0c3-f8c9a89fdf59/Gau-80450.chk"
 -----
 titel
 -----
 Charge =  0 Multiplicity = 1

                         Standard orientation:
 ---------------------------------------------------------------------
 Center     Atomic      Atomic             Coordinates (Angstroms)
 Number     Number       Type             X           Y           Z
 ---------------------------------------------------------------------
      1          8           0        0.759843    1.812322    0.830233
      2          6           0        0.596734    1.037323   -0.353184
      3          6           0       -0.844881    1.192379   -0.886156
      4          6           0       -1.533045   -0.132159   -0.518152
      5          6           0       -1.485571   -0.372879    1.029547
      6          6           0       -0.203323   -1.171792    0.818855
      7          6           0       -0.435779   -1.224075   -0.689834
      8          6           0        0.742445   -0.467797   -0.132489
      9          8           0        2.026280   -1.018732   -0.133144
     10          1           0        1.559870    1.500289    1.267174
     11          1           0        1.335531    1.359413   -1.105941
     12          1           0       -1.327809    2.068641   -0.444953
     13          1           0       -0.830338    1.321701   -1.973617
     14          1           0       -2.498736   -0.288650   -0.998159
     15          1           0       -1.436660    0.513960    1.667058
     16          1           0       -2.302363   -1.021082    1.358038
     17          1           0        0.202219   -1.948289    1.456745
     18          1           0       -0.383658   -2.053028   -1.383600
     19          1           0        2.373483   -0.967677   -1.030984
 ---------------------------------------------------------------------

 SCF Done:  E(RB3LYP) =  -423.157604183     A.U. after    1 cycles

 The electronic state is 1-A.
 Alpha  occ. eigenvalues --  -19.14932 -19.12917 -10.23278 -10.22657 -10.18943
 Alpha  occ. eigenvalues --  -10.18741 -10.18386 -10.17624 -10.17618  -1.03697
 Alpha  occ. eigenvalues --   -1.00845  -0.89972  -0.75435  -0.71976  -0.64983
 Alpha  occ. eigenvalues --   -0.59817  -0.57343  -0.53193  -0.51971  -0.50765
 Alpha  occ. eigenvalues --   -0.45831  -0.44377  -0.41494  -0.40956  -0.40082
 Alpha  occ. eigenvalues --   -0.38857  -0.36204  -0.33682  -0.31871  -0.31295
 Alpha  occ. eigenvalues --   -0.29393  -0.27681  -0.25733  -0.23711
 Alpha virt. eigenvalues --    0.07031   0.08950   0.10107   0.11372   0.12814
 Alpha virt. eigenvalues --    0.14002   0.15185   0.16069   0.16499   0.17767
 Alpha virt. eigenvalues --    0.18882   0.19226   0.19590   0.22716   0.23188

 Mulliken charges:
               1
     1  O   -0.436391
     2  C    0.056512
     3  C   -0.219916
     4  C   -0.060951
     5  C   -0.237940
     6  C   -0.083387
     7  C   -0.168836
     8  C    0.377743
     9  O   -0.493003
    10  H    0.285748
    11  H    0.048780
    12  H    0.111448
    13  H    0.092954
    14  H    0.067676
    15  H    0.107586
    16  H    0.096594
    17  H    0.088920
    18  H    0.084644
    19  H    0.281821
 Sum of Mulliken charges =   0.00000

 Dipole moment (field-independent basis, Debye):
    X=              0.2528    Y=             -0.7465    Z=             -1.5482  Tot=              1.7373
 Quadrupole moment (field-independent basis, Debye-Ang):
   XX=            -50.2506   YY=            -56.7905   ZZ=            -50.0903
   XY=              1.2591   XZ=             -1.7729   YZ=              0.0933

  Exact polarizability:  77.659  -0.085  71.421  -1.466  -1.359  71.398
 Approx polarizability: 110.963  -0.695 102.400  -0.417   0.768 111.263

                      1                      2                      3
                      A                      A                      A
 Frequencies --    129.9981               234.7790               276.1146
 Red. masses --      3.7385                 2.9016                 2.0433
 Frc consts  --      0.0372                 0.0942                 0.0918
 IR Inten    --      0.3727                 3.3029                15.8481

                      4                      5                      6
                      A                      A                      A
 Frequencies --    313.3980               336.2747               367.7645
 Red. masses --      1.4258                 1.8447                 1.8840
 Frc consts  --      0.0825                 0.1229                 0.1501
 IR Inten    --     49.1246                39.0545                99.1768

                      7                      8                      9
                      A                      A                      A
 Frequencies --    379.5851               430.5330               551.9485
 Red. masses --      1.9292                 2.7775                 4.0484
 Frc consts  --      0.1638                 0.3033                 0.7267
 IR Inten    --      9.0738                 4.3082                 8.8869

                     10                     11                     12
                      A                      A                      A
 Frequencies --    581.1678               650.4792               683.1925
 Red. masses --      4.5704                 3.7250                 4.0173
 Frc consts  --      0.9095                 0.9286                 1.1048
 IR Inten    --      5.4234                 3.7353                 7.9781

                     13                     14                     15
                      A                      A                      A
 Frequencies --    810.4840               845.4800               849.5586
 Red. masses --      2.7537                 1.4338                 2.7429
 Frc consts  --      1.0658                 0.6039                 1.1664
 IR Inten    --      0.6490                 9.2878                 0.6640

                     16                     17                     18
                      A                      A                      A
 Frequencies --    861.6203               889.9489               934.1684
 Red. masses --      2.0791                 2.0308                 2.2734
 Frc consts  --      0.9094                 0.9477                 1.1689
 IR Inten    --      3.2214                 3.6174                 5.0153

                     19                     20                     21
                      A                      A                      A
 Frequencies --    950.5260               989.6710              1003.9033
 Red. masses --      2.3040                 1.4802                 2.1845
 Frc consts  --      1.2265                 0.8542                 1.2972
 IR Inten    --      8.4373                10.8149                15.6993

                     22                     23                     24
                      A                      A                      A
 Frequencies --   1010.2447              1037.1239              1053.4799
 Red. masses --      2.1812                 1.8623                 1.9056
 Frc consts  --      1.3116                 1.1802                 1.2461
 IR Inten    --     15.7671                10.8212                25.0141

                     25                     26                     27
                      A                      A                      A
 Frequencies --   1098.0681              1122.5135              1158.1115
 Red. masses --      2.2725                 1.6118                 1.6806
 Frc consts  --      1.6144                 1.1966                 1.3280
 IR Inten    --      5.5516                17.0722                15.9670

                     28                     29                     30
                      A                      A                      A
 Frequencies --   1194.9686              1210.9825              1216.5932
 Red. masses --      1.6078                 1.3255                 1.5817
 Frc consts  --      1.3527                 1.1452                 1.3793
 IR Inten    --     16.9748                19.4779                26.0959

                     31                     32                     33
                      A                      A                      A
 Frequencies --   1238.3596              1267.0643              1279.0648
 Red. masses --      1.6256                 1.7505                 1.4798
 Frc consts  --      1.4688                 1.6558                 1.4264
 IR Inten    --     12.7338                46.4825                19.9980

                     34                     35                     36
                      A                      A                      A
 Frequencies --   1299.8413              1323.5986              1341.2154
 Red. masses --      1.6160                 1.5896                 1.4410
 Frc consts  --      1.6087                 1.6408                 1.5272
 IR Inten    --      6.0908                39.7157                12.6654

                     37                     38                     39
                      A                      A                      A
 Frequencies --   1362.0739              1404.4535              1436.2504
 Red. masses --      2.0632                 1.4087                 2.4990
 Frc consts  --      2.2553                 1.6371                 3.0372
 IR Inten    --     33.3212                 3.4048                 9.0145

                     40                     41                     42
                      A                      A                      A
 Frequencies --   1477.9629              1489.9602              2951.9604
 Red. masses --      1.1089                 1.1118                 1.0836
 Frc consts  --      1.4271                 1.4541                 5.5634
 IR Inten    --      3.1406                 1.4358                75.1057

                     43                     44                     45
                      A                      A                      A
 Frequencies --   3047.3818              3053.0640              3101.4798
 Red. masses --      1.0625                 1.0566                 1.1031
 Frc consts  --      5.8137                 5.8029                 6.2516
 IR Inten    --     37.3636                39.4874                10.9574

                     46                     47                     48
                      A                      A                      A
 Frequencies --   3105.3126              3113.7129              3181.5010
 Red. masses --      1.1025                 1.0946                 1.0898
 Frc consts  --      6.2638                 6.2527                 6.4991
 IR Inten    --     22.1382                45.4002                14.8250

                     49                     50                     51
                      A                      A                      A
 Frequencies --   3199.8455              3787.6911              3806.0155
 Red. masses --      1.0968                 1.0660                 1.0660
 Frc consts  --      6.6169                 9.0104                 9.0984
 IR Inten    --     13.3215                16.5184                22.3746

 - Thermochemistry -
 -------------------
 Temperature   298.150 Kelvin.  Pressure   1.00000 Atm.
 Atom     1 has atomic number  8 and mass  15.99491

 Molecular mass:   126.06808 amu.
 Principal axes and moments of inertia in atomic units:
                           1         2         3
     Eigenvalues --   816.13246 885.291741202.82925
           X            0.99925   0.03463  -0.01747
           Y           -0.03509   0.99903  -0.02657
           Z            0.01653   0.02717   0.99949
 This molecule is an asymmetric top.
 Rotational symmetry number  1.
 Warning -- assumption of classical behavior for rotation
           may cause significant error
 Rotational temperatures (Kelvin)      0.10613     0.09784     0.07201
 Rotational constants (GHZ):           2.21133     2.03858     1.50041
 Zero-point vibrational energy     421327.7 (Joules/Mol)
                                  100.69974 (Kcal/Mol)
 Warning -- explicit consideration of  10 degrees of freedom as
           vibrations may cause significant error
 Vibrational temperatures:    187.04   337.79   397.27   450.91   483.82
          (Kelvin)            529.13   546.14   619.44   794.13   836.17
                              935.89   982.96  1166.10  1216.46  1222.32
                             1239.68  1280.44  1344.06  1367.59  1423.91
                             1444.39  1453.51  1492.19  1515.72  1579.87
                             1615.04  1666.26  1719.29  1742.33  1750.40
                             1781.72  1823.02  1840.29  1870.18  1904.36
                             1929.71  1959.72  2020.69  2066.44  2126.46
                             2143.72  4247.21  4384.50  4392.67  4462.33
                             4467.85  4479.93  4577.46  4603.86  5449.64
                             5476.00

 Zero-point correction=                           0.160475 (Hartree/Particle)
 Thermal correction to Energy=                    0.168101
 Thermal correction to Enthalpy=                  0.169045
 Thermal correction to Gibbs Free Energy=         0.128966
 Sum of electronic and zero-point Energies=           -422.997129
 Sum of electronic and thermal Energies=              -422.989504
 Sum of electronic and thermal Enthalpies=            -422.988559
 Sum of electronic and thermal Free Energies=         -423.028638

                     E (Thermal)             CV                S
                      KCal/Mol        Cal/Mol-Kelvin    Cal/Mol-Kelvin
 Total                  105.485             31.398             84.352
 Electronic               0.000              0.000              0.000
 Translational            0.889              2.981             40.409
 Rotational               0.889              2.981             28.254
 Vibrational            103.707             25.436             15.689
 Vibration     1          0.612              1.923              2.946
 Vibration     2          0.655              1.788              1.842
 Vibration     3          0.678              1.718              1.558
 Vibration     4          0.701              1.648              1.344
 Vibration     5          0.717              1.603              1.230
 Vibration     6          0.740              1.539              1.089
 Vibration     7          0.750              1.514              1.041
 Vibration     8          0.792              1.404              0.857
 Vibration     9          0.907              1.135              0.540
 Vibration    10          0.938              1.072              0.483

 Normal termination of Gaussian 09 at Tue Jan 28 04:23:15 2020.
