 Gaussian 09, Revision D.01,
 Gaussian 09:  ES64L-G09RevD.01 24-Apr-2013

 -----------------------------
 # b3lyp 6-31G(2df,p) opt Freq
 -----------------------------

 -----
 titel
 -----
 Symbolic Z-matrix:
 Charge =  0 Multiplicity = 1

 SCF Done:  E(RB3LYP) =  -423.100666666     A.U. after   13 cycles
 Optimization completed.
    -- Stationary point found.
 Normal termination of Gaussian 09 at Mon Jan 27 22:00:55 2020.

 ----------------------------------------------------------------------
 #N Geom=AllCheck Guess=TCheck SCRF=Check GenChk RB3LYP/6-31G(2df,p) Fr
 eq
 ----------------------------------------------------------------------

 Structure from the checkpoint file:  "/scratch/puck/g09_f842b78c-77e1-4bc4-80db-f0c8c1ce5ee5/Gau-98512.chk"
 -----
 titel
 -----
 Charge =  0 Multiplicity = 1

                         Standard orientation:
 ---------------------------------------------------------------------
 Center     Atomic      Atomic             Coordinates (Angstroms)
 Number     Number       Type             X           Y           Z
 ---------------------------------------------------------------------
      1          6           0        2.148390   -0.307655   -1.023519
      2          6           0        0.641766   -0.203370   -0.910374
      3          6           0        0.052980    0.786059    0.093436
      4          6           0        0.786273    1.910387    0.764181
      5          6           0       -1.514498    0.758907    0.006083
      6          8           0       -1.961882   -0.156029   -1.009287
      7          6           0       -1.559630   -0.674182    0.267567
      8          6           0        0.006657   -0.723754    0.348392
      9          8           0        0.701956   -1.536411    1.222616
     10          1           0        2.638372   -0.290264   -0.047184
     11          1           0        2.423068   -1.251571   -1.504877
     12          1           0        2.553492    0.508615   -1.630929
     13          1           0        0.106014   -0.344931   -1.842938
     14          1           0        0.750378    2.823866    0.157290
     15          1           0        0.348757    2.152017    1.740853
     16          1           0        1.839192    1.665727    0.926687
     17          1           0       -2.186802    1.563079    0.284220
     18          1           0       -2.262844   -1.297027    0.810132
     19          1           0        0.498148   -1.268342    2.125511
 ---------------------------------------------------------------------

 SCF Done:  E(RB3LYP) =  -423.100666666     A.U. after    1 cycles

 The electronic state is 1-A.
 Alpha  occ. eigenvalues --  -19.15668 -19.15249 -10.23718 -10.23610 -10.23471
 Alpha  occ. eigenvalues --  -10.19399 -10.18625 -10.18587 -10.17376  -1.07726
 Alpha  occ. eigenvalues --   -1.03815  -0.86500  -0.73448  -0.72126  -0.65646
 Alpha  occ. eigenvalues --   -0.63279  -0.57151  -0.53799  -0.51448  -0.48980
 Alpha  occ. eigenvalues --   -0.46130  -0.43187  -0.42797  -0.40037  -0.39209
 Alpha  occ. eigenvalues --   -0.38862  -0.38199  -0.36444  -0.36018  -0.33188
 Alpha  occ. eigenvalues --   -0.31909  -0.27110  -0.24960  -0.21602
 Alpha virt. eigenvalues --    0.05729   0.06833   0.10678   0.10883   0.11873
 Alpha virt. eigenvalues --    0.13905   0.14444   0.15391   0.16379   0.16730
 Alpha virt. eigenvalues --    0.18156   0.19212   0.20229   0.20614   0.22551

 Mulliken charges:
               1
     1  C   -0.428402
     2  C   -0.090751
     3  C    0.183113
     4  C   -0.505924
     5  C   -0.030055
     6  O   -0.236443
     7  C   -0.063000
     8  C    0.285674
     9  O   -0.451011
    10  H    0.123380
    11  H    0.124720
    12  H    0.115011
    13  H    0.108561
    14  H    0.125818
    15  H    0.112389
    16  H    0.128997
    17  H    0.103898
    18  H    0.105324
    19  H    0.288702
 Sum of Mulliken charges =   0.00000

 Dipole moment (field-independent basis, Debye):
    X=              0.2548    Y=              1.2133    Z=              2.2945  Tot=              2.6080
 Quadrupole moment (field-independent basis, Debye-Ang):
   XX=            -54.5424   YY=            -53.7657   ZZ=            -50.2030
   XY=              0.8694   XZ=             -4.0805   YZ=             -0.4411

  Exact polarizability:  80.233   0.229  75.743  -3.799   0.583  68.426
 Approx polarizability: 107.751  -0.976 116.293  -0.250  -1.583 107.213

                      1                      2                      3
                      A                      A                      A
 Frequencies --    141.9354               163.2032               179.6469
 Red. masses --      2.8095                 1.0919                 1.2447
 Frc consts  --      0.0333                 0.0171                 0.0237
 IR Inten    --      1.4445                 0.0908                 0.9118

                      4                      5                      6
                      A                      A                      A
 Frequencies --    224.5939               253.2565               283.2105
 Red. masses --      2.2784                 2.3276                 3.2113
 Frc consts  --      0.0677                 0.0880                 0.1518
 IR Inten    --      1.5871                 1.0026                 3.0585

                      7                      8                      9
                      A                      A                      A
 Frequencies --    295.4927               319.3652               360.7112
 Red. masses --      3.3199                 1.1888                 4.1216
 Frc consts  --      0.1708                 0.0714                 0.3160
 IR Inten    --      7.1554                79.6137                13.5098

                     10                     11                     12
                      A                      A                      A
 Frequencies --    457.8845               543.2905               573.0329
 Red. masses --      4.8856                 3.1176                 4.7167
 Frc consts  --      0.6035                 0.5422                 0.9125
 IR Inten    --      7.5662                 8.0607                 6.0272

                     13                     14                     15
                      A                      A                      A
 Frequencies --    615.4449               730.7962               752.6935
 Red. masses --      4.4095                 4.3885                 3.3213
 Frc consts  --      0.9841                 1.3809                 1.1086
 IR Inten    --      1.6353                 8.9690                10.6288

                     16                     17                     18
                      A                      A                      A
 Frequencies --    793.4953               816.9103               847.1038
 Red. masses --      3.7395                 5.5834                 1.4624
 Frc consts  --      1.3873                 2.1953                 0.6183
 IR Inten    --      2.8959                 2.3109                30.3506

                     19                     20                     21
                      A                      A                      A
 Frequencies --    881.4723               969.6042               996.4019
 Red. masses --      2.2379                 3.3343                 1.5511
 Frc consts  --      1.0245                 1.8469                 0.9073
 IR Inten    --      6.9809                25.6368                 0.1997

                     22                     23                     24
                      A                      A                      A
 Frequencies --   1034.9026              1049.9076              1065.6590
 Red. masses --      1.5026                 1.4871                 1.8198
 Frc consts  --      0.9482                 0.9658                 1.2176
 IR Inten    --     13.9470                 1.7650                 1.3329

                     25                     26                     27
                      A                      A                      A
 Frequencies --   1091.6772              1121.9800              1161.4214
 Red. masses --      1.6745                 2.0350                 1.7021
 Frc consts  --      1.1758                 1.5093                 1.3527
 IR Inten    --      0.0030                 4.9521                10.2042

                     28                     29                     30
                      A                      A                      A
 Frequencies --   1173.5012              1194.7803              1231.7756
 Red. masses --      1.7653                 1.4362                 1.5110
 Frc consts  --      1.4323                 1.2079                 1.3507
 IR Inten    --      7.9354                 3.7463                33.7971

                     31                     32                     33
                      A                      A                      A
 Frequencies --   1282.5730              1341.2084              1345.9999
 Red. masses --      1.7489                 2.1448                 2.2846
 Frc consts  --      1.6951                 2.2732                 2.4386
 IR Inten    --     90.6441                32.5416                 8.4026

                     34                     35                     36
                      A                      A                      A
 Frequencies --   1370.3840              1410.9244              1419.8512
 Red. masses --      3.7272                 1.2901                 1.3211
 Frc consts  --      4.1240                 1.5132                 1.5691
 IR Inten    --      5.8289                 0.1982                 1.2436

                     37                     38                     39
                      A                      A                      A
 Frequencies --   1459.7434              1485.9168              1495.0192
 Red. masses --      2.5355                 1.0966                 1.0462
 Frc consts  --      3.1833                 1.4266                 1.3777
 IR Inten    --     10.1863                 4.5510                 2.5783

                     40                     41                     42
                      A                      A                      A
 Frequencies --   1496.6711              1513.3200              3016.3930
 Red. masses --      1.0617                 1.1515                 1.0387
 Frc consts  --      1.4012                 1.5537                 5.5680
 IR Inten    --      1.3328                11.3776                42.8264

                     43                     44                     45
                      A                      A                      A
 Frequencies --   3038.8638              3064.8414              3098.7676
 Red. masses --      1.0368                 1.1005                 1.1011
 Frc consts  --      5.6411                 6.0906                 6.2295
 IR Inten    --     30.7590                24.3293                20.9268

                     46                     47                     48
                      A                      A                      A
 Frequencies --   3110.1831              3120.8853              3166.3541
 Red. masses --      1.0969                 1.0980                 1.0874
 Frc consts  --      6.2516                 6.3011                 6.4233
 IR Inten    --     14.2975                15.3261                12.8462

                     49                     50                     51
                      A                      A                      A
 Frequencies --   3168.3367              3183.6533              3788.7171
 Red. masses --      1.0870                 1.1021                 1.0663
 Frc consts  --      6.4292                 6.5816                 9.0184
 IR Inten    --     17.2841                22.1997                19.1237

 - Thermochemistry -
 -------------------
 Temperature   298.150 Kelvin.  Pressure   1.00000 Atm.
 Atom     1 has atomic number  6 and mass  12.00000

 Molecular mass:   126.06808 amu.
 Principal axes and moments of inertia in atomic units:
                           1         2         3
     Eigenvalues --   793.354301131.722201289.06613
           X            0.99828   0.03282  -0.04849
           Y           -0.02830   0.99544   0.09105
           Z            0.05126  -0.08952   0.99466
 This molecule is an asymmetric top.
 Rotational symmetry number  1.
 Warning -- assumption of classical behavior for rotation
           may cause significant error
 Rotational temperatures (Kelvin)      0.10917     0.07653     0.06719
 Rotational constants (GHZ):           2.27482     1.59469     1.40004
 Zero-point vibrational energy     410939.7 (Joules/Mol)
                                   98.21695 (Kcal/Mol)
 Warning -- explicit consideration of  13 degrees of freedom as
           vibrations may cause significant error
 Vibrational temperatures:    204.21   234.81   258.47   323.14   364.38
          (Kelvin)            407.48   425.15   459.49   518.98   658.79
                              781.67   824.47   885.49  1051.45  1082.96
                             1141.66  1175.35  1218.79  1268.24  1395.04
                             1433.60  1488.99  1510.58  1533.24  1570.68
                             1614.28  1671.02  1688.40  1719.02  1772.25
                             1845.33  1929.70  1936.59  1971.67  2030.00
                             2042.85  2100.24  2137.90  2151.00  2153.37
                             2177.33  4339.91  4372.24  4409.62  4458.43
                             4474.85  4490.25  4555.67  4558.52  4580.56
                             5451.11

 Zero-point correction=                           0.156519 (Hartree/Particle)
 Thermal correction to Energy=                    0.165459
 Thermal correction to Enthalpy=                  0.166403
 Thermal correction to Gibbs Free Energy=         0.123638
 Sum of electronic and zero-point Energies=           -422.944148
 Sum of electronic and thermal Energies=              -422.935208
 Sum of electronic and thermal Enthalpies=            -422.934264
 Sum of electronic and thermal Free Energies=         -422.977029

                     E (Thermal)             CV                S
                      KCal/Mol        Cal/Mol-Kelvin    Cal/Mol-Kelvin
 Total                  103.827             34.529             90.006
 Electronic               0.000              0.000              0.000
 Translational            0.889              2.981             40.409
 Rotational               0.889              2.981             28.539
 Vibrational            102.049             28.567             21.059
 Vibration     1          0.615              1.911              2.778
 Vibration     2          0.623              1.888              2.512
 Vibration     3          0.629              1.867              2.332
 Vibration     4          0.649              1.804              1.922
 Vibration     5          0.664              1.757              1.708
 Vibration     6          0.682              1.705              1.514
 Vibration     7          0.690              1.682              1.442
 Vibration     8          0.705              1.637              1.313
 Vibration     9          0.735              1.553              1.119
 Vibration    10          0.816              1.343              0.772
 Vibration    11          0.898              1.154              0.558
 Vibration    12          0.929              1.090              0.498
 Vibration    13          0.975              0.999              0.424

 Normal termination of Gaussian 09 at Mon Jan 27 22:47:41 2020.
