 Gaussian 09, Revision D.01,
 Gaussian 09:  ES64L-G09RevD.01 24-Apr-2013

 -----------------------------
 # b3lyp 6-31G(2df,p) opt Freq
 -----------------------------

 -----
 titel
 -----
 Symbolic Z-matrix:
 Charge =  0 Multiplicity = 1

 SCF Done:  E(RB3LYP) =  -423.190295038     A.U. after   14 cycles
 Optimization completed.
    -- Stationary point found.
 Normal termination of Gaussian 09 at Mon Jan 27 13:41:31 2020.

 ----------------------------------------------------------------------
 #N Geom=AllCheck Guess=TCheck SCRF=Check GenChk RB3LYP/6-31G(2df,p) Fr
 eq
 ----------------------------------------------------------------------

 Structure from the checkpoint file:  "/scratch/puck/g09_4bc9f16b-aa7d-41d8-a7d8-8a5caa9836e1/Gau-2189.chk"
 -----
 titel
 -----
 Charge =  0 Multiplicity = 1

                         Standard orientation:
 ---------------------------------------------------------------------
 Center     Atomic      Atomic             Coordinates (Angstroms)
 Number     Number       Type             X           Y           Z
 ---------------------------------------------------------------------
      1          8           0       -3.134959   -0.541367   -0.095459
      2          6           0       -2.076689   -0.025584   -0.348744
      3          6           0       -0.811531   -0.209068    0.460849
      4          6           0       -0.228516    1.164041    0.906770
      5          6           0        0.674645    1.615737   -0.257723
      6          6           0        1.277207    0.320477   -0.785871
      7          8           0        2.300084   -0.214137    0.089392
      8          6           0        1.513314   -1.388799    0.374624
      9          6           0        0.306331   -0.834655   -0.408939
     10          1           0       -1.971303    0.644711   -1.235283
     11          1           0       -1.068599   -0.846896    1.311307
     12          1           0       -1.007243    1.891092    1.154524
     13          1           0        0.372861    1.015799    1.808137
     14          1           0        0.085995    2.089866   -1.052565
     15          1           0        1.447066    2.325875    0.050169
     16          1           0        1.631557    0.379619   -1.820668
     17          1           0        1.960825   -2.293138   -0.056699
     18          1           0        1.369552   -1.540520    1.451644
     19          1           0       -0.070270   -1.475277   -1.207815
 ---------------------------------------------------------------------

 SCF Done:  E(RB3LYP) =  -423.190295038     A.U. after    1 cycles

 The electronic state is 1-A.
 Alpha  occ. eigenvalues --  -19.14146 -19.13786 -10.27218 -10.24020 -10.23793
 Alpha  occ. eigenvalues --  -10.20562 -10.20290 -10.19796 -10.19150  -1.04858
 Alpha  occ. eigenvalues --   -1.04438  -0.84193  -0.75522  -0.71636  -0.67784
 Alpha  occ. eigenvalues --   -0.61484  -0.56981  -0.54537  -0.52119  -0.48856
 Alpha  occ. eigenvalues --   -0.47826  -0.44546  -0.44170  -0.43196  -0.41910
 Alpha  occ. eigenvalues --   -0.39837  -0.37495  -0.35913  -0.35030  -0.34197
 Alpha  occ. eigenvalues --   -0.32414  -0.30802  -0.25787  -0.24852
 Alpha virt. eigenvalues --   -0.02441   0.07207   0.08484   0.09262   0.09790
 Alpha virt. eigenvalues --    0.12568   0.14284   0.14487   0.15519   0.16012
 Alpha virt. eigenvalues --    0.17268   0.18208   0.18885   0.20393   0.21097

 Mulliken charges:
               1
     1  O   -0.251920
     2  C    0.152968
     3  C   -0.087329
     4  C   -0.246334
     5  C   -0.228826
     6  C    0.140691
     7  O   -0.296082
     8  C   -0.088271
     9  C   -0.088614
    10  H    0.071024
    11  H    0.094225
    12  H    0.110716
    13  H    0.125359
    14  H    0.103623
    15  H    0.117436
    16  H    0.074991
    17  H    0.104710
    18  H    0.104861
    19  H    0.086769
 Sum of Mulliken charges =   0.00000

 Dipole moment (field-independent basis, Debye):
    X=              1.1821    Y=              0.5722    Z=             -0.4900  Tot=              1.4017
 Quadrupole moment (field-independent basis, Debye-Ang):
   XX=            -69.9535   YY=            -50.2005   ZZ=            -50.6712
   XY=             -3.7242   XZ=             -0.4553   YZ=             -0.3372

  Exact polarizability:  82.460   0.253  74.825  -0.457  -3.541  67.502
 Approx polarizability: 118.971   5.720 107.259  -0.624  -6.393 102.824

                      1                      2                      3
                      A                      A                      A
 Frequencies --     51.5325                96.3894               173.0324
 Red. masses --      4.4666                 4.0292                 3.0769
 Frc consts  --      0.0070                 0.0221                 0.0543
 IR Inten    --      7.4964                 5.5752                 1.8776

                      4                      5                      6
                      A                      A                      A
 Frequencies --    221.0738               285.8536               370.0598
 Red. masses --      2.4189                 2.2194                 2.3871
 Frc consts  --      0.0697                 0.1068                 0.1926
 IR Inten    --      0.8918                 1.0598                 3.5185

                      7                      8                      9
                      A                      A                      A
 Frequencies --    375.3692               452.5027               625.7851
 Red. masses --      2.9395                 3.9597                 2.5619
 Frc consts  --      0.2440                 0.4777                 0.5911
 IR Inten    --      0.4277                12.8636                 1.9756

                     10                     11                     12
                      A                      A                      A
 Frequencies --    675.2046               811.3096               830.1690
 Red. masses --      3.4832                 1.9997                 2.6721
 Frc consts  --      0.9356                 0.7755                 1.0850
 IR Inten    --      0.2207                 0.9050                 1.8577

                     13                     14                     15
                      A                      A                      A
 Frequencies --    850.5399               883.9922               899.3385
 Red. masses --      2.2050                 3.8460                 2.8645
 Frc consts  --      0.9398                 1.7707                 1.3650
 IR Inten    --      6.4929                21.4430                 0.6357

                     16                     17                     18
                      A                      A                      A
 Frequencies --    925.7353               960.4298               982.0776
 Red. masses --      2.1815                 2.1523                 2.0969
 Frc consts  --      1.1015                 1.1697                 1.1916
 IR Inten    --     23.1217                 6.3570                 1.2137

                     19                     20                     21
                      A                      A                      A
 Frequencies --   1003.1657              1022.7694              1039.0217
 Red. masses --      1.9430                 2.9853                 2.3355
 Frc consts  --      1.1520                 1.8399                 1.4855
 IR Inten    --     14.9821                43.4306                33.8083

                     22                     23                     24
                      A                      A                      A
 Frequencies --   1065.2209              1102.4040              1129.2608
 Red. masses --      2.0338                 1.7344                 2.1663
 Frc consts  --      1.3597                 1.2419                 1.6277
 IR Inten    --      2.8126                10.4117                10.8586

                     25                     26                     27
                      A                      A                      A
 Frequencies --   1163.1632              1177.2739              1191.2988
 Red. masses --      1.1570                 1.5034                 1.6572
 Frc consts  --      0.9223                 1.2277                 1.3857
 IR Inten    --      1.4802                 2.0338                 4.3041

                     28                     29                     30
                      A                      A                      A
 Frequencies --   1216.5398              1260.0349              1277.4527
 Red. masses --      1.6167                 1.3865                 1.3605
 Frc consts  --      1.4097                 1.2970                 1.3081
 IR Inten    --     10.0581                 0.3838                 2.8350

                     31                     32                     33
                      A                      A                      A
 Frequencies --   1293.9782              1316.1659              1329.1980
 Red. masses --      1.3457                 1.3924                 1.4099
 Frc consts  --      1.3276                 1.4211                 1.4676
 IR Inten    --      0.8204                 2.3505                 0.6310

                     34                     35                     36
                      A                      A                      A
 Frequencies --   1356.0148              1362.5313              1367.4041
 Red. masses --      1.5203                 1.4780                 1.4067
 Frc consts  --      1.6471                 1.6167                 1.5497
 IR Inten    --      3.1509                 1.6715                 5.6844

                     37                     38                     39
                      A                      A                      A
 Frequencies --   1436.2506              1475.8902              1495.7364
 Red. masses --      1.2084                 1.0904                 1.0950
 Frc consts  --      1.4687                 1.3994                 1.4434
 IR Inten    --      4.8845                 4.2786                 5.2077

                     40                     41                     42
                      A                      A                      A
 Frequencies --   1525.1389              1831.5536              2846.0051
 Red. masses --      1.0988                10.2189                 1.0804
 Frc consts  --      1.5059                20.1973                 5.1561
 IR Inten    --      0.7111               196.7911                91.8551

                     43                     44                     45
                      A                      A                      A
 Frequencies --   3010.3456              3035.4164              3052.0855
 Red. masses --      1.0551                 1.0700                 1.0826
 Frc consts  --      5.6334                 5.8085                 5.9419
 IR Inten    --     76.8060                10.9432                68.1200

                     46                     47                     48
                      A                      A                      A
 Frequencies --   3053.3343              3059.5283              3076.4013
 Red. masses --      1.1099                 1.0627                 1.0843
 Frc consts  --      6.0964                 5.8608                 6.0460
 IR Inten    --     26.8955                10.8916                19.0021

                     49                     50                     51
                      A                      A                      A
 Frequencies --   3095.9837              3099.3198              3107.4839
 Red. masses --      1.0978                 1.0897                 1.1039
 Frc consts  --      6.1999                 6.1671                 6.2806
 IR Inten    --     19.6791                19.2844                23.9423

 - Thermochemistry -
 -------------------
 Temperature   298.150 Kelvin.  Pressure   1.00000 Atm.
 Atom     1 has atomic number  8 and mass  15.99491

 Molecular mass:   126.06808 amu.
 Principal axes and moments of inertia in atomic units:
                           1         2         3
     Eigenvalues --   549.431191480.382611729.85542
           X            0.99987  -0.01592  -0.00124
           Y            0.01590   0.99978  -0.01381
           Z            0.00146   0.01379   0.99990
 This molecule is an asymmetric top.
 Rotational symmetry number  1.
 Warning -- assumption of classical behavior for rotation
           may cause significant error
 Rotational temperatures (Kelvin)      0.15764     0.05851     0.05007
 Rotational constants (GHZ):           3.28474     1.21910     1.04329
 Zero-point vibrational energy     420749.2 (Joules/Mol)
                                  100.56146 (Kcal/Mol)
 Warning -- explicit consideration of   8 degrees of freedom as
           vibrations may cause significant error
 Vibrational temperatures:     74.14   138.68   248.95   318.08   411.28
          (Kelvin)            532.43   540.07   651.05   900.36   971.47
                             1167.29  1194.43  1223.74  1271.87  1293.95
                             1331.92  1381.84  1412.99  1443.33  1471.54
                             1494.92  1532.61  1586.11  1624.75  1673.53
                             1693.83  1714.01  1750.33  1812.91  1837.97
                             1861.74  1893.67  1912.42  1951.00  1960.38
                             1967.39  2066.44  2123.47  2152.03  2194.33
                             2635.19  4094.76  4331.21  4367.28  4391.26
                             4393.06  4401.97  4426.25  4454.42  4459.22
                             4470.97

 Zero-point correction=                           0.160255 (Hartree/Particle)
 Thermal correction to Energy=                    0.168243
 Thermal correction to Enthalpy=                  0.169188
 Thermal correction to Gibbs Free Energy=         0.126900
 Sum of electronic and zero-point Energies=           -423.030040
 Sum of electronic and thermal Energies=              -423.022052
 Sum of electronic and thermal Enthalpies=            -423.021107
 Sum of electronic and thermal Free Energies=         -423.063395

                     E (Thermal)             CV                S
                      KCal/Mol        Cal/Mol-Kelvin    Cal/Mol-Kelvin
 Total                  105.574             29.879             89.002
 Electronic               0.000              0.000              0.000
 Translational            0.889              2.981             40.409
 Rotational               0.889              2.981             28.733
 Vibrational            103.797             23.917             19.861
 Vibration     1          0.596              1.977              4.758
 Vibration     2          0.603              1.952              3.526
 Vibration     3          0.627              1.876              2.402
 Vibration     4          0.648              1.809              1.950
 Vibration     5          0.684              1.700              1.498
 Vibration     6          0.742              1.534              1.080
 Vibration     7          0.746              1.523              1.058
 Vibration     8          0.811              1.355              0.788

 Optimization completed.
    -- Stationary point found.
 Normal termination of Gaussian 09 at Mon Jan 27 15:39:46 2020.
