 Gaussian 09, Revision D.01,
 Gaussian 09:  ES64L-G09RevD.01 24-Apr-2013

 -----------------------------
 # b3lyp 6-31G(2df,p) opt Freq
 -----------------------------

 -----
 titel
 -----
 Symbolic Z-matrix:
 Charge =  0 Multiplicity = 1

 SCF Done:  E(RB3LYP) =  -423.143855732     A.U. after   13 cycles
 Optimization completed.
    -- Stationary point found.
 Normal termination of Gaussian 09 at Mon Jan 27 11:56:07 2020.

 ----------------------------------------------------------------------
 #N Geom=AllCheck Guess=TCheck SCRF=Check GenChk RB3LYP/6-31G(2df,p) Fr
 eq
 ----------------------------------------------------------------------

 Structure from the checkpoint file:  "/scratch/puck/g09_66d45790-62ad-4091-8f8d-a8024b0fd633/Gau-20849.chk"
 -----
 titel
 -----
 Charge =  0 Multiplicity = 1

                         Standard orientation:
 ---------------------------------------------------------------------
 Center     Atomic      Atomic             Coordinates (Angstroms)
 Number     Number       Type             X           Y           Z
 ---------------------------------------------------------------------
      1          6           0        1.908229   -0.996014   -0.450022
      2          8           0        2.283594    0.272833    0.128192
      3          6           0        0.907980   -0.039685    0.001468
      4          6           0       -0.056909    0.015616    1.193534
      5          6           0       -0.450042    1.432734    0.659651
      6          6           0       -0.062491    0.884323   -0.747516
      7          8           0       -1.094843    0.103295   -1.338455
      8          6           0       -1.943413   -0.534463   -0.382680
      9          6           0       -1.201970   -0.974782    0.899954
     10          1           0        2.117138   -1.101864   -1.513521
     11          1           0        2.146788   -1.866777    0.159585
     12          1           0        0.358586   -0.085107    2.197964
     13          1           0       -1.468012    1.795178    0.814851
     14          1           0        0.265643    2.192293    0.979997
     15          1           0        0.323651    1.557454   -1.514785
     16          1           0       -2.760215    0.148776   -0.111757
     17          1           0       -2.394485   -1.387305   -0.897285
     18          1           0       -1.917002   -1.003690    1.729953
     19          1           0       -0.790403   -1.984353    0.790773
 ---------------------------------------------------------------------

 SCF Done:  E(RB3LYP) =  -423.143855732     A.U. after    1 cycles

 The electronic state is 1-A.
 Alpha  occ. eigenvalues --  -19.14949 -19.13948 -10.23446 -10.23388 -10.23068
 Alpha  occ. eigenvalues --  -10.23055 -10.19760 -10.19171 -10.18744  -1.06982
 Alpha  occ. eigenvalues --   -1.03255  -0.84282  -0.76715  -0.67376  -0.64450
 Alpha  occ. eigenvalues --   -0.62876  -0.61719  -0.52243  -0.51400  -0.49677
 Alpha  occ. eigenvalues --   -0.48264  -0.44190  -0.43763  -0.40894  -0.40234
 Alpha  occ. eigenvalues --   -0.39695  -0.37869  -0.37309  -0.33368  -0.33061
 Alpha  occ. eigenvalues --   -0.29658  -0.28893  -0.26971  -0.23471
 Alpha virt. eigenvalues --    0.07934   0.08850   0.10221   0.11398   0.12699
 Alpha virt. eigenvalues --    0.13174   0.14005   0.14379   0.15590   0.16024
 Alpha virt. eigenvalues --    0.17555   0.18454   0.19439   0.20843   0.22258

 Mulliken charges:
               1
     1  C   -0.298270
     2  O   -0.300569
     3  C    0.502673
     4  C   -0.126053
     5  C   -0.274770
     6  C    0.026550
     7  O   -0.273869
     8  C   -0.065248
     9  C   -0.231648
    10  H    0.121607
    11  H    0.114763
    12  H    0.077589
    13  H    0.100966
    14  H    0.121095
    15  H    0.087394
    16  H    0.099311
    17  H    0.109758
    18  H    0.102052
    19  H    0.106669
 Sum of Mulliken charges =   0.00000

 Dipole moment (field-independent basis, Debye):
    X=             -1.3168    Y=             -0.9717    Z=              0.9862  Tot=              1.9106
 Quadrupole moment (field-independent basis, Debye-Ang):
   XX=            -55.9417   YY=            -50.2164   ZZ=            -54.2320
   XY=             -1.7826   XZ=             -3.3958   YZ=              0.0590

  Exact polarizability:  80.982  -2.185  73.590  -3.575   0.954  68.382
 Approx polarizability: 112.109  -0.874 108.665  -3.045   2.829 102.757

                      1                      2                      3
                      A                      A                      A
 Frequencies --    129.7836               209.4848               235.2227
 Red. masses --      3.3736                 2.6070                 2.3224
 Frc consts  --      0.0335                 0.0674                 0.0757
 IR Inten    --      0.9188                 1.9507                 6.2410

                      4                      5                      6
                      A                      A                      A
 Frequencies --    287.7322               364.2111               404.1120
 Red. masses --      4.8109                 2.3750                 2.8264
 Frc consts  --      0.2347                 0.1856                 0.2719
 IR Inten    --      4.3982                 2.9717                 0.7657

                      7                      8                      9
                      A                      A                      A
 Frequencies --    466.6120               502.9594               621.4247
 Red. masses --      4.0855                 4.5169                 3.3914
 Frc consts  --      0.5241                 0.6732                 0.7716
 IR Inten    --      2.5523                 0.2407                 6.0568

                     10                     11                     12
                      A                      A                      A
 Frequencies --    640.1342               804.0740               811.7653
 Red. masses --      2.6266                 1.7564                 2.7464
 Frc consts  --      0.6342                 0.6690                 1.0663
 IR Inten    --      4.2930                 0.1929                 4.5232

                     13                     14                     15
                      A                      A                      A
 Frequencies --    840.9607               870.7823               881.1202
 Red. masses --      2.6304                 3.5154                 1.7054
 Frc consts  --      1.0960                 1.5705                 0.7801
 IR Inten    --      4.0021                11.1725                12.4648

                     16                     17                     18
                      A                      A                      A
 Frequencies --    929.5157               936.2607               944.9316
 Red. masses --      2.3387                 2.2203                 2.6795
 Frc consts  --      1.1905                 1.1467                 1.4096
 IR Inten    --     13.9110                 9.0805                31.3389

                     19                     20                     21
                      A                      A                      A
 Frequencies --    974.9604              1037.3444              1067.7435
 Red. masses --      3.0532                 2.2280                 1.6163
 Frc consts  --      1.7099                 1.4126                 1.0857
 IR Inten    --     25.2289                14.4037                 4.4430

                     22                     23                     24
                      A                      A                      A
 Frequencies --   1086.7769              1112.2059              1115.9801
 Red. masses --      1.6117                 2.0396                 1.6897
 Frc consts  --      1.1215                 1.4865                 1.2399
 IR Inten    --     28.9547                 7.6045                 7.9317

                     25                     26                     27
                      A                      A                      A
 Frequencies --   1137.6937              1150.8884              1162.4181
 Red. masses --      2.1415                 1.4201                 1.7795
 Frc consts  --      1.6331                 1.1083                 1.4167
 IR Inten    --     19.3472                 3.3528                32.3682

                     28                     29                     30
                      A                      A                      A
 Frequencies --   1195.4008              1221.5559              1246.7553
 Red. masses --      1.5953                 1.6071                 1.6920
 Frc consts  --      1.3431                 1.4129                 1.5496
 IR Inten    --     13.5243                15.3874                 2.5906

                     31                     32                     33
                      A                      A                      A
 Frequencies --   1266.2086              1279.0988              1304.6264
 Red. masses --      1.2982                 1.5472                 1.3721
 Frc consts  --      1.2263                 1.4914                 1.3760
 IR Inten    --      4.1867                 2.8239                 0.2508

                     34                     35                     36
                      A                      A                      A
 Frequencies --   1337.1023              1361.0408              1407.0194
 Red. masses --      1.3727                 1.4008                 1.2917
 Frc consts  --      1.4459                 1.5289                 1.5066
 IR Inten    --      9.3816                 3.3512                 4.5886

                     37                     38                     39
                      A                      A                      A
 Frequencies --   1451.1372              1484.3995              1490.6949
 Red. masses --      1.7493                 1.1188                 1.0892
 Frc consts  --      2.1704                 1.4525                 1.4261
 IR Inten    --      8.3906                 3.7921                 1.8272

                     40                     41                     42
                      A                      A                      A
 Frequencies --   1520.2116              1542.0362              2999.7039
 Red. masses --      1.0924                 1.9448                 1.0718
 Frc consts  --      1.4875                 2.7246                 5.6825
 IR Inten    --      0.8757                 8.1645                45.2720

                     43                     44                     45
                      A                      A                      A
 Frequencies --   3033.6590              3072.4243              3075.2231
 Red. masses --      1.0597                 1.0987                 1.0589
 Frc consts  --      5.7461                 6.1108                 5.9003
 IR Inten    --     29.3480                33.3530                19.9674

                     46                     47                     48
                      A                      A                      A
 Frequencies --   3082.3317              3088.5918              3095.4236
 Red. masses --      1.0509                 1.0973                 1.0879
 Frc consts  --      5.8825                 6.1676                 6.1417
 IR Inten    --     17.6722                45.9925                39.7063

                     49                     50                     51
                      A                      A                      A
 Frequencies --   3104.9831              3134.1587              3168.7066
 Red. masses --      1.0904                 1.1090                 1.1189
 Frc consts  --      6.1936                 6.4184                 6.6191
 IR Inten    --     29.1431                21.4561                18.2180

 - Thermochemistry -
 -------------------
 Temperature   298.150 Kelvin.  Pressure   1.00000 Atm.
 Atom     1 has atomic number  6 and mass  12.00000

 Molecular mass:   126.06808 amu.
 Principal axes and moments of inertia in atomic units:
                           1         2         3
     Eigenvalues --   612.737611196.636861207.43633
           X            0.99949  -0.02943  -0.01226
           Y            0.00862  -0.12084   0.99264
           Z            0.03069   0.99224   0.12052
 This molecule is an asymmetric top.
 Rotational symmetry number  1.
 Warning -- assumption of classical behavior for rotation
           may cause significant error
 Rotational temperatures (Kelvin)      0.14136     0.07238     0.07173
 Rotational constants (GHZ):           2.94537     1.50818     1.49469
 Zero-point vibrational energy     422817.7 (Joules/Mol)
                                  101.05584 (Kcal/Mol)
 Warning -- explicit consideration of   8 degrees of freedom as
           vibrations may cause significant error
 Vibrational temperatures:    186.73   301.40   338.43   413.98   524.02
          (Kelvin)            581.43   671.35   723.65   894.09   921.01
                             1156.88  1167.95  1209.95  1252.86  1267.73
                             1337.36  1347.07  1359.54  1402.75  1492.51
                             1536.24  1563.63  1600.21  1605.64  1636.89
                             1655.87  1672.46  1719.91  1757.54  1793.80
                             1821.79  1840.34  1877.06  1923.79  1958.23
                             2024.38  2087.86  2135.72  2144.77  2187.24
                             2218.64  4315.90  4364.75  4420.53  4424.55
                             4434.78  4443.79  4453.62  4467.37  4509.35
                             4559.06

 Zero-point correction=                           0.161043 (Hartree/Particle)
 Thermal correction to Energy=                    0.168302
 Thermal correction to Enthalpy=                  0.169246
 Thermal correction to Gibbs Free Energy=         0.129612
 Sum of electronic and zero-point Energies=           -422.982813
 Sum of electronic and thermal Energies=              -422.975554
 Sum of electronic and thermal Enthalpies=            -422.974610
 Sum of electronic and thermal Free Energies=         -423.014243

                     E (Thermal)             CV                S
                      KCal/Mol        Cal/Mol-Kelvin    Cal/Mol-Kelvin
 Total                  105.611             29.368             83.416
 Electronic               0.000              0.000              0.000
 Translational            0.889              2.981             40.409
 Rotational               0.889              2.981             28.273
 Vibrational            103.834             23.407             14.735
 Vibration     1          0.612              1.924              2.949
 Vibration     2          0.642              1.826              2.048
 Vibration     3          0.655              1.787              1.839
 Vibration     4          0.685              1.697              1.487
 Vibration     5          0.738              1.546              1.104
 Vibration     6          0.769              1.461              0.948
 Vibration     7          0.824              1.324              0.747
 Vibration     8          0.858              1.243              0.651

 Optimization completed.
    -- Stationary point found.
 Normal termination of Gaussian 09 at Mon Jan 27 12:41:57 2020.
