 Gaussian 09, Revision D.01,
 Gaussian 09:  ES64L-G09RevD.01 24-Apr-2013

 -----------------------------
 # b3lyp 6-31G(2df,p) opt Freq
 -----------------------------

 -----
 titel
 -----
 Symbolic Z-matrix:
 Charge =  0 Multiplicity = 1

 SCF Done:  E(RB3LYP) =  -423.141132322     A.U. after   13 cycles
 Optimization completed.
    -- Stationary point found.
 Normal termination of Gaussian 09 at Mon Jan 27 23:46:43 2020.

 ----------------------------------------------------------------------
 #N Geom=AllCheck Guess=TCheck SCRF=Check GenChk RB3LYP/6-31G(2df,p) Fr
 eq
 ----------------------------------------------------------------------

 Structure from the checkpoint file:  "/scratch/puck/g09_fbc02991-bf17-41af-8c9a-16cb552613b8/Gau-77867.chk"
 -----
 titel
 -----
 Charge =  0 Multiplicity = 1

                         Standard orientation:
 ---------------------------------------------------------------------
 Center     Atomic      Atomic             Coordinates (Angstroms)
 Number     Number       Type             X           Y           Z
 ---------------------------------------------------------------------
      1          6           0        1.882412   -1.199406   -0.576408
      2          6           0        0.647062   -0.521968   -0.035719
      3          6           0        0.361273   -0.370017    1.486334
      4          6           0       -1.106188   -0.233856    1.050198
      5          6           0       -1.200977    0.778425   -0.157893
      6          8           0       -1.611554   -0.294636   -1.058988
      7          6           0       -0.838643   -1.123316   -0.177332
      8          6           0        0.282661    0.902176   -0.547725
      9          8           0        0.913686    1.984700    0.104863
     10          1           0        2.789365   -0.629963   -0.334636
     11          1           0        2.010196   -2.201548   -0.153299
     12          1           0        1.834527   -1.298964   -1.666781
     13          1           0        0.516988   -1.308812    2.026837
     14          1           0        0.845902    0.454966    2.009064
     15          1           0       -1.970535   -0.339727    1.702428
     16          1           0       -1.838331    1.660814   -0.179515
     17          1           0       -0.993822   -2.198107   -0.270284
     18          1           0        0.371750    0.985395   -1.638216
     19          1           0        1.851304    1.963207   -0.111329
 ---------------------------------------------------------------------

 SCF Done:  E(RB3LYP) =  -423.141132322     A.U. after    1 cycles

 The electronic state is 1-A.
 Alpha  occ. eigenvalues --  -19.14313 -19.13267 -10.23439 -10.23413 -10.22896
 Alpha  occ. eigenvalues --  -10.19485 -10.19022 -10.18186 -10.17967  -1.05476
 Alpha  occ. eigenvalues --   -1.02221  -0.85248  -0.73786  -0.71694  -0.64980
 Alpha  occ. eigenvalues --   -0.64048  -0.56064  -0.53597  -0.51102  -0.49001
 Alpha  occ. eigenvalues --   -0.47157  -0.44350  -0.42830  -0.41007  -0.39813
 Alpha  occ. eigenvalues --   -0.39108  -0.37142  -0.34471  -0.33375  -0.31193
 Alpha  occ. eigenvalues --   -0.30578  -0.28754  -0.27267  -0.23307
 Alpha virt. eigenvalues --    0.05580   0.09298   0.11246   0.12177   0.12523
 Alpha virt. eigenvalues --    0.14085   0.14538   0.15551   0.16251   0.17378
 Alpha virt. eigenvalues --    0.17868   0.18527   0.18979   0.20212   0.21310

 Mulliken charges:
               1
     1  C   -0.515673
     2  C    0.228807
     3  C   -0.283561
     4  C   -0.077003
     5  C    0.042682
     6  O   -0.298904
     7  C    0.076600
     8  C    0.115393
     9  O   -0.444373
    10  H    0.108151
    11  H    0.118645
    12  H    0.123492
    13  H    0.093159
    14  H    0.109664
    15  H    0.077208
    16  H    0.084679
    17  H    0.082374
    18  H    0.072711
    19  H    0.285950
 Sum of Mulliken charges =   0.00000

 Dipole moment (field-independent basis, Debye):
    X=              1.8151    Y=             -0.6698    Z=              0.5874  Tot=              2.0220
 Quadrupole moment (field-independent basis, Debye-Ang):
   XX=            -51.4185   YY=            -53.1278   ZZ=            -54.8545
   XY=              0.5329   XZ=             -3.6837   YZ=             -1.9457

  Exact polarizability:  77.721  -1.520  74.067  -1.525  -1.084  69.243
 Approx polarizability: 110.821  -0.153 110.549   2.155   0.474 105.972

                      1                      2                      3
                      A                      A                      A
 Frequencies --    187.2783               199.0827               241.0426
 Red. masses --      3.0851                 1.1108                 1.3143
 Frc consts  --      0.0638                 0.0259                 0.0450
 IR Inten    --      1.5060                 0.5926                47.2230

                      4                      5                      6
                      A                      A                      A
 Frequencies --    263.6329               284.0765               343.4393
 Red. masses --      1.8562                 3.3944                 3.0314
 Frc consts  --      0.0760                 0.1614                 0.2107
 IR Inten    --     47.6930                16.4891                 1.6190

                      7                      8                      9
                      A                      A                      A
 Frequencies --    445.1299               514.6059               565.3541
 Red. masses --      2.2627                 5.8495                 3.9492
 Frc consts  --      0.2641                 0.9127                 0.7437
 IR Inten    --      2.4980                 3.6446                 3.7603

                     10                     11                     12
                      A                      A                      A
 Frequencies --    607.3749               691.3668               755.3101
 Red. masses --      3.5658                 4.6787                 3.2584
 Frc consts  --      0.7750                 1.3176                 1.0952
 IR Inten    --      4.5369                 2.5445                 3.2194

                     13                     14                     15
                      A                      A                      A
 Frequencies --    800.6525               818.3519               853.9476
 Red. masses --      3.4316                 2.7928                 1.6997
 Frc consts  --      1.2961                 1.1020                 0.7303
 IR Inten    --      2.8272                 1.7137                 8.4528

                     16                     17                     18
                      A                      A                      A
 Frequencies --    877.8554               924.2058               942.4294
 Red. masses --      3.3500                 2.0443                 2.6677
 Frc consts  --      1.5211                 1.0288                 1.3960
 IR Inten    --     18.3065                 5.3104                38.3123

                     19                     20                     21
                      A                      A                      A
 Frequencies --    962.9171               980.6539              1001.1260
 Red. masses --      2.2695                 1.8478                 1.6938
 Frc consts  --      1.2398                 1.0470                 1.0002
 IR Inten    --     18.7645                13.5657                 4.7167

                     22                     23                     24
                      A                      A                      A
 Frequencies --   1046.0884              1053.7832              1115.4416
 Red. masses --      1.8253                 1.9407                 1.6880
 Frc consts  --      1.1769                 1.2698                 1.2374
 IR Inten    --      3.9332                11.5750                 9.1897

                     25                     26                     27
                      A                      A                      A
 Frequencies --   1124.7020              1136.1958              1159.9238
 Red. masses --      1.9263                 2.9173                 1.7085
 Frc consts  --      1.4356                 2.2189                 1.3543
 IR Inten    --      4.1655                81.4790                 1.1502

                     28                     29                     30
                      A                      A                      A
 Frequencies --   1199.8913              1215.3844              1218.5651
 Red. masses --      1.5146                 1.7012                 1.6422
 Frc consts  --      1.2848                 1.4806                 1.4367
 IR Inten    --      2.5535                 9.2441                 7.1470

                     31                     32                     33
                      A                      A                      A
 Frequencies --   1229.6378              1268.1860              1269.3078
 Red. masses --      1.3705                 2.1719                 1.4491
 Frc consts  --      1.2209                 2.0580                 1.3756
 IR Inten    --     13.8847                 5.7731                36.5701

                     34                     35                     36
                      A                      A                      A
 Frequencies --   1293.1069              1327.1681              1368.2209
 Red. masses --      1.7360                 1.6919                 1.9937
 Frc consts  --      1.7103                 1.7558                 2.1990
 IR Inten    --      0.6159                 7.9540                10.5738

                     37                     38                     39
                      A                      A                      A
 Frequencies --   1408.7963              1418.5666              1487.8384
 Red. masses --      1.3730                 1.4545                 1.0885
 Frc consts  --      1.6055                 1.7245                 1.4197
 IR Inten    --      2.1762                 0.5322                 0.5971

                     40                     41                     42
                      A                      A                      A
 Frequencies --   1492.4729              1494.9616              3014.5112
 Red. masses --      1.0879                 1.0472                 1.0386
 Frc consts  --      1.4278                 1.3790                 5.5608
 IR Inten    --      8.6167                 5.6164                32.0502

                     43                     44                     45
                      A                      A                      A
 Frequencies --   3025.8136              3059.9499              3073.8514
 Red. masses --      1.0842                 1.0614                 1.0971
 Frc consts  --      5.8483                 5.8555                 6.1075
 IR Inten    --     45.7387                28.4244                22.9792

                     46                     47                     48
                      A                      A                      A
 Frequencies --   3092.3353              3120.7960              3131.7115
 Red. masses --      1.1011                 1.0902                 1.1027
 Frc consts  --      6.2036                 6.2557                 6.3719
 IR Inten    --     22.3362                38.6099                20.9028

                     49                     50                     51
                      A                      A                      A
 Frequencies --   3135.5532              3145.9085              3816.7445
 Red. masses --      1.0908                 1.0944                 1.0663
 Frc consts  --      6.3186                 6.3813                 9.1519
 IR Inten    --     27.0293                39.9780                21.0413

 - Thermochemistry -
 -------------------
 Temperature   298.150 Kelvin.  Pressure   1.00000 Atm.
 Atom     1 has atomic number  6 and mass  12.00000

 Molecular mass:   126.06808 amu.
 Principal axes and moments of inertia in atomic units:
                           1         2         3
     Eigenvalues --   795.70886 918.373981123.28041
           X            0.98668  -0.15328  -0.05439
           Y            0.15268   0.98816  -0.01512
           Z            0.05606   0.00662   0.99841
 This molecule is an asymmetric top.
 Rotational symmetry number  1.
 Warning -- assumption of classical behavior for rotation
           may cause significant error
 Rotational temperatures (Kelvin)      0.10885     0.09431     0.07711
 Rotational constants (GHZ):           2.26809     1.96515     1.60667
 Zero-point vibrational energy     419920.6 (Joules/Mol)
                                  100.36344 (Kcal/Mol)
 Warning -- explicit consideration of  10 degrees of freedom as
           vibrations may cause significant error
 Vibrational temperatures:    269.45   286.44   346.81   379.31   408.72
          (Kelvin)            494.13   640.44   740.40   813.42   873.88
                              994.72  1086.72  1151.96  1177.42  1228.64
                             1263.04  1329.72  1355.94  1385.42  1410.94
                             1440.40  1505.09  1516.16  1604.87  1618.19
                             1634.73  1668.87  1726.37  1748.66  1753.24
                             1769.17  1824.63  1826.25  1860.49  1909.50
                             1968.56  2026.94  2041.00  2140.66  2147.33
                             2150.91  4337.20  4353.47  4402.58  4422.58
                             4449.18  4490.12  4505.83  4511.36  4526.25
                             5491.44

 Zero-point correction=                           0.159939 (Hartree/Particle)
 Thermal correction to Energy=                    0.167501
 Thermal correction to Enthalpy=                  0.168445
 Thermal correction to Gibbs Free Energy=         0.128494
 Sum of electronic and zero-point Energies=           -422.981193
 Sum of electronic and thermal Energies=              -422.973631
 Sum of electronic and thermal Enthalpies=            -422.972687
 Sum of electronic and thermal Free Energies=         -423.012639

                     E (Thermal)             CV                S
                      KCal/Mol        Cal/Mol-Kelvin    Cal/Mol-Kelvin
 Total                  105.109             30.836             84.086
 Electronic               0.000              0.000              0.000
 Translational            0.889              2.981             40.409
 Rotational               0.889              2.981             28.197
 Vibrational            103.331             24.874             15.480
 Vibration     1          0.632              1.857              2.255
 Vibration     2          0.637              1.841              2.142
 Vibration     3          0.658              1.778              1.795
 Vibration     4          0.670              1.740              1.638
 Vibration     5          0.682              1.703              1.509
 Vibration     6          0.722              1.589              1.196
 Vibration     7          0.805              1.372              0.811
 Vibration     8          0.870              1.218              0.623
 Vibration     9          0.921              1.106              0.513
 Vibration    10          0.966              1.016              0.437

 Normal termination of Gaussian 09 at Tue Jan 28 00:35:09 2020.
