 Gaussian 09, Revision D.01,
 Gaussian 09:  ES64L-G09RevD.01 24-Apr-2013

 -----------------------------
 # b3lyp 6-31G(2df,p) opt Freq
 -----------------------------

 -----
 titel
 -----
 Symbolic Z-matrix:
 Charge =  0 Multiplicity = 1

 SCF Done:  E(RB3LYP) =  -423.213367044     A.U. after   14 cycles
 Optimization completed.
    -- Stationary point found.
 Normal termination of Gaussian 09 at Tue Jan 28 02:34:04 2020.

 ----------------------------------------------------------------------
 #N Geom=AllCheck Guess=TCheck SCRF=Check GenChk RB3LYP/6-31G(2df,p) Fr
 eq
 ----------------------------------------------------------------------

 Structure from the checkpoint file:  "/scratch/puck/g09_2d24f4e1-c034-4687-b149-8d6d97e022e0/Gau-172280.chk"
 -----
 titel
 -----
 Charge =  0 Multiplicity = 1

                         Standard orientation:
 ---------------------------------------------------------------------
 Center     Atomic      Atomic             Coordinates (Angstroms)
 Number     Number       Type             X           Y           Z
 ---------------------------------------------------------------------
      1          6           0        1.679462   -2.908479    0.000000
      2          6           0        0.549474   -1.892335    0.000000
      3          6           0        0.549474   -0.772936    1.085388
      4          6           0        0.120692    0.229862    0.000000
      5          6           0        0.549474   -0.772936   -1.085388
      6          6           0        0.389159    1.739638    0.000000
      7          6           0       -1.134273    1.853223    0.000000
      8          8           0       -1.959867    2.708375    0.000000
      9          8           0       -1.332974    0.496906    0.000000
     10          1           0        1.633851   -3.553387    0.884347
     11          1           0        1.633851   -3.553387   -0.884347
     12          1           0        2.656447   -2.410907    0.000000
     13          1           0       -0.418225   -2.403189    0.000000
     14          1           0       -0.123713   -0.875479    1.939099
     15          1           0        1.560599   -0.557207    1.446889
     16          1           0       -0.123713   -0.875479   -1.939099
     17          1           0        1.560599   -0.557207   -1.446889
     18          1           0        0.871129    2.143889    0.892538
     19          1           0        0.871129    2.143889   -0.892538
 ---------------------------------------------------------------------

 SCF Done:  E(RB3LYP) =  -423.213343109     A.U. after    5 cycles

 The electronic state is 1-A'.
 Alpha  occ. eigenvalues --  -19.17498 -19.12935 -10.30510 -10.25930 -10.20667
 Alpha  occ. eigenvalues --  -10.20121 -10.19374 -10.19373 -10.18410  -1.10075
 Alpha  occ. eigenvalues --   -1.02781  -0.85864  -0.76546  -0.72608  -0.68050
 Alpha  occ. eigenvalues --   -0.61164  -0.56807  -0.53514  -0.50665  -0.49073
 Alpha  occ. eigenvalues --   -0.47770  -0.46180  -0.42783  -0.42337  -0.41266
 Alpha  occ. eigenvalues --   -0.39862  -0.38721  -0.36425  -0.35672  -0.33847
 Alpha  occ. eigenvalues --   -0.31920  -0.31101  -0.28716  -0.27001
 Alpha virt. eigenvalues --    0.01480   0.07042   0.08079   0.09173   0.11717
 Alpha virt. eigenvalues --    0.13144   0.13842   0.14073   0.15682   0.16159
 Alpha virt. eigenvalues --    0.16394   0.17927   0.17956   0.19436   0.21030

 Mulliken charges:
               1
     1  C   -0.410636
     2  C    0.051571
     3  C   -0.296673
     4  C    0.444651
     5  C   -0.296673
     6  C   -0.512011
     7  C    0.441253
     8  O   -0.319847
     9  O   -0.276567
    10  H    0.120295
    11  H    0.120295
    12  H    0.111021
    13  H    0.091211
    14  H    0.118718
    15  H    0.105371
    16  H    0.118718
    17  H    0.105371
    18  H    0.141966
    19  H    0.141966
 Sum of Mulliken charges =   0.00000

 Dipole moment (field-independent basis, Debye):
    X=              3.7388    Y=             -2.1761    Z=              0.0000  Tot=              4.3260
 Quadrupole moment (field-independent basis, Debye-Ang):
   XX=            -59.5202   YY=            -58.4273   ZZ=            -51.0466
   XY=              7.6545   XZ=              0.0000   YZ=              0.0000

  Exact polarizability:  73.786 -13.059  90.155   0.000   0.000  65.443
 Approx polarizability: 110.971 -10.280 118.798   0.000   0.000  96.852

                      1                      2                      3
                     A'                     A"                     A"
 Frequencies --     61.9480                85.8966               223.1725
 Red. masses --      3.2734                 6.0658                 1.1640
 Frc consts  --      0.0074                 0.0264                 0.0342
 IR Inten    --      1.3288                 2.0081                 0.7767

                      4                      5                      6
                     A"                     A"                     A'
 Frequencies --    269.7683               278.8339               282.7565
 Red. masses --      1.7657                 2.8793                 3.6710
 Frc consts  --      0.0757                 0.1319                 0.1729
 IR Inten    --      1.0164                 0.0994                 0.6134

                      7                      8                      9
                     A'                     A"                     A'
 Frequencies --    392.4745               447.7007               452.3195
 Red. masses --      2.6103                 2.4499                 2.5421
 Frc consts  --      0.2369                 0.2893                 0.3064
 IR Inten    --      0.2381                 0.2792                 2.1290

                     10                     11                     12
                     A"                     A'                     A'
 Frequencies --    520.3787               530.9039               695.2163
 Red. masses --      2.2712                 3.6574                 3.2245
 Frc consts  --      0.3624                 0.6074                 0.9182
 IR Inten    --      3.5769                 1.2779                 0.9005

                     13                     14                     15
                     A'                     A"                     A'
 Frequencies --    783.2065               796.5084               843.1648
 Red. masses --      3.0404                 1.4603                 6.5190
 Frc consts  --      1.0988                 0.5458                 2.7306
 IR Inten    --      0.6281                 1.5981                83.8137

                     16                     17                     18
                     A"                     A"                     A'
 Frequencies --    875.7211               892.7282               900.8707
 Red. masses --      1.8126                 2.1326                 2.7895
 Frc consts  --      0.8190                 1.0014                 1.3338
 IR Inten    --      0.0948                 0.0006                 4.6186

                     19                     20                     21
                     A'                     A'                     A"
 Frequencies --    949.3206               967.3755              1038.9098
 Red. masses --      1.4570                 4.5820                 1.1628
 Frc consts  --      0.7736                 2.5264                 0.7395
 IR Inten    --     12.4712                17.0916                 2.0646

                     22                     23                     24
                     A"                     A'                     A'
 Frequencies --   1074.0871              1074.7879              1099.0042
 Red. masses --      1.7360                 2.4963                 2.7025
 Frc consts  --      1.1800                 1.6990                 1.9232
 IR Inten    --      4.0995                14.1282               122.2432

                     25                     26                     27
                     A"                     A'                     A'
 Frequencies --   1129.5634              1170.8881              1215.1062
 Red. masses --      1.6677                 2.0027                 2.1107
 Frc consts  --      1.2537                 1.6177                 1.8361
 IR Inten    --      0.3921                10.9263                20.9117

                     28                     29                     30
                     A"                     A"                     A'
 Frequencies --   1218.6377              1233.5752              1236.2026
 Red. masses --      2.0004                 1.4325                 1.6707
 Frc consts  --      1.7504                 1.2843                 1.5043
 IR Inten    --      2.6531                 1.6165                14.2035

                     31                     32                     33
                     A'                     A"                     A'
 Frequencies --   1274.3316              1289.7039              1328.2441
 Red. masses --      2.0228                 1.3844                 2.7639
 Frc consts  --      1.9353                 1.3567                 2.8729
 IR Inten    --     32.4284                 1.6157                59.1013

                     34                     35                     36
                     A'                     A'                     A'
 Frequencies --   1374.7833              1412.9360              1451.1850
 Red. masses --      1.4673                 1.2847                 1.1254
 Frc consts  --      1.6339                 1.5111                 1.3964
 IR Inten    --      1.4842                 1.1981                11.4245

                     37                     38                     39
                     A"                     A'                     A"
 Frequencies --   1455.5248              1479.3085              1495.5313
 Red. masses --      1.0906                 1.1534                 1.0493
 Frc consts  --      1.3613                 1.4871                 1.3827
 IR Inten    --      4.5533                 2.2860                 1.7411

                     40                     41                     42
                     A'                     A'                     A'
 Frequencies --   1496.3620              1938.2962              3023.7904
 Red. masses --      1.0438                12.8959                 1.0356
 Frc consts  --      1.3770                28.5458                 5.5788
 IR Inten    --      6.9961               513.6543                24.8584

                     43                     44                     45
                     A"                     A'                     A'
 Frequencies --   3047.9101              3051.1375              3060.2774
 Red. masses --      1.0602                 1.0702                 1.0775
 Frc consts  --      5.8028                 5.8699                 5.9454
 IR Inten    --     25.1673                 2.7389                10.9815

                     46                     47                     48
                     A'                     A'                     A"
 Frequencies --   3081.5152              3092.2931              3095.5504
 Red. masses --      1.0596                 1.1002                 1.1012
 Frc consts  --      5.9282                 6.1983                 6.2170
 IR Inten    --      5.1809                34.2405                23.6379

                     49                     50                     51
                     A"                     A'                     A"
 Frequencies --   3117.7634              3119.5760              3137.6234
 Red. masses --      1.1045                 1.1045                 1.1068
 Frc consts  --      6.3259                 6.3329                 6.4200
 IR Inten    --     10.5659                27.9960                 2.6301

 - Thermochemistry -
 -------------------
 Temperature   298.150 Kelvin.  Pressure   1.00000 Atm.
 Atom     1 has atomic number  6 and mass  12.00000

 Molecular mass:   126.06808 amu.
 Principal axes and moments of inertia in atomic units:
                           1         2         3
     Eigenvalues --   330.965422036.016242058.05233
           X           -0.50325   0.86414   0.00000
           Y            0.86414   0.50325   0.00000
           Z            0.00000   0.00000   1.00000
 This molecule is an asymmetric top.
 Rotational symmetry number  1.
 Rotational temperatures (Kelvin)      0.26170     0.04254     0.04209
 Rotational constants (GHZ):           5.45296     0.88641     0.87692
 Zero-point vibrational energy     416089.1 (Joules/Mol)
                                   99.44769 (Kcal/Mol)
 Warning -- explicit consideration of  11 degrees of freedom as
           vibrations may cause significant error
 Vibrational temperatures:     89.13   123.59   321.10   388.14   401.18
          (Kelvin)            406.82   564.68   644.14   650.79   748.71
                              763.85  1000.26  1126.86  1146.00  1213.12
                             1259.97  1284.44  1296.15  1365.86  1391.84
                             1494.76  1545.37  1546.38  1581.22  1625.19
                             1684.64  1748.26  1753.35  1774.84  1778.62
                             1833.48  1855.59  1911.04  1978.00  2032.90
                             2087.93  2094.17  2128.39  2151.73  2152.93
                             2788.77  4350.55  4385.26  4389.90  4403.05
                             4433.61  4449.11  4453.80  4485.76  4488.37
                             4514.33

 Zero-point correction=                           0.158480 (Hartree/Particle)
 Thermal correction to Energy=                    0.166905
 Thermal correction to Enthalpy=                  0.167849
 Thermal correction to Gibbs Free Energy=         0.125119
 Sum of electronic and zero-point Energies=           -423.054863
 Sum of electronic and thermal Energies=              -423.046438
 Sum of electronic and thermal Enthalpies=            -423.045494
 Sum of electronic and thermal Free Energies=         -423.088224

                     E (Thermal)             CV                S
                      KCal/Mol        Cal/Mol-Kelvin    Cal/Mol-Kelvin
 Total                  104.734             32.138             89.933
 Electronic               0.000              0.000              0.000
 Translational            0.889              2.981             40.409
 Rotational               0.889              2.981             28.719
 Vibrational            102.957             26.176             20.806
 Vibration     1          0.597              1.972              4.394
 Vibration     2          0.601              1.959              3.751
 Vibration     3          0.649              1.806              1.933
 Vibration     4          0.674              1.729              1.598
 Vibration     5          0.679              1.713              1.541
 Vibration     6          0.682              1.706              1.517
 Vibration     7          0.760              1.486              0.991
 Vibration     8          0.807              1.366              0.803
 Vibration     9          0.811              1.356              0.789
 Vibration    10          0.875              1.205              0.609
 Vibration    11          0.886              1.182              0.585

 Normal termination of Gaussian 09 at Tue Jan 28 03:00:15 2020.
