 Gaussian 09, Revision D.01,
 Gaussian 09:  ES64L-G09RevD.01 24-Apr-2013

 -----------------------------
 # b3lyp 6-31G(2df,p) opt Freq
 -----------------------------

 -----
 titel
 -----
 Symbolic Z-matrix:
 Charge =  0 Multiplicity = 1

 SCF Done:  E(RB3LYP) =  -423.104660415     A.U. after   13 cycles
 Optimization completed.
    -- Stationary point found.
 Normal termination of Gaussian 09 at Mon Jan 27 23:02:36 2020.

 ----------------------------------------------------------------------
 #N Geom=AllCheck Guess=TCheck SCRF=Check GenChk RB3LYP/6-31G(2df,p) Fr
 eq
 ----------------------------------------------------------------------

 Structure from the checkpoint file:  "/scratch/puck/g09_7c11abff-9237-44a4-b3e7-8d5ed9a76028/Gau-128731.chk"
 -----
 titel
 -----
 Charge =  0 Multiplicity = 1

                         Standard orientation:
 ---------------------------------------------------------------------
 Center     Atomic      Atomic             Coordinates (Angstroms)
 Number     Number       Type             X           Y           Z
 ---------------------------------------------------------------------
      1          8           0        1.522533    1.841312   -0.145576
      2          6           0        1.335930    0.516079   -0.547991
      3          6           0        1.799516   -0.689096    0.325371
      4          6           0        0.846994   -1.554819   -0.543997
      5          6           0        0.022615   -0.275175   -0.201483
      6          6           0        0.573423   -0.421046    1.252068
      7          6           0       -1.367975    0.039568   -0.624820
      8          6           0       -2.281876    0.839363    0.201868
      9          8           0       -2.427697   -0.577938    0.119123
     10          1           0        1.357365    1.915119    0.799728
     11          1           0        1.635223    0.478825   -1.599080
     12          1           0        2.816178   -0.934275    0.632734
     13          1           0        1.124594   -1.698414   -1.592376
     14          1           0        0.490113   -2.480721   -0.089756
     15          1           0        0.592539    0.471739    1.886017
     16          1           0        0.197235   -1.272464    1.822799
     17          1           0       -1.531750    0.043760   -1.704305
     18          1           0       -1.943899    1.217611    1.165363
     19          1           0       -3.068043    1.422580   -0.275608
 ---------------------------------------------------------------------

 SCF Done:  E(RB3LYP) =  -423.104660415     A.U. after    1 cycles

 The electronic state is 1-A.
 Alpha  occ. eigenvalues --  -19.14986 -19.14332 -10.24097 -10.23767 -10.23389
 Alpha  occ. eigenvalues --  -10.20794 -10.20359 -10.19687 -10.19272  -1.06893
 Alpha  occ. eigenvalues --   -1.03064  -0.90973  -0.70318  -0.68112  -0.65928
 Alpha  occ. eigenvalues --   -0.65051  -0.58978  -0.56486  -0.51782  -0.49690
 Alpha  occ. eigenvalues --   -0.48824  -0.45994  -0.42035  -0.40200  -0.39335
 Alpha  occ. eigenvalues --   -0.38096  -0.37327  -0.34862  -0.33237  -0.32285
 Alpha  occ. eigenvalues --   -0.31027  -0.29420  -0.27301  -0.25103
 Alpha virt. eigenvalues --    0.06454   0.09422   0.10601   0.11162   0.11334
 Alpha virt. eigenvalues --    0.12807   0.13703   0.14734   0.15247   0.16093
 Alpha virt. eigenvalues --    0.17150   0.18026   0.19347   0.19653   0.21840

 Mulliken charges:
               1
     1  O   -0.448492
     2  C    0.151614
     3  C   -0.107636
     4  C   -0.263697
     5  C    0.318344
     6  C   -0.297820
     7  C   -0.085243
     8  C   -0.175748
     9  O   -0.235890
    10  H    0.283139
    11  H    0.083608
    12  H    0.077796
    13  H    0.093018
    14  H    0.107120
    15  H    0.075074
    16  H    0.110687
    17  H    0.090293
    18  H    0.107705
    19  H    0.116129
 Sum of Mulliken charges =   0.00000

 Dipole moment (field-independent basis, Debye):
    X=              0.6171    Y=              0.3089    Z=              0.5262  Tot=              0.8678
 Quadrupole moment (field-independent basis, Debye-Ang):
   XX=            -57.4414   YY=            -55.3002   ZZ=            -49.9490
   XY=             -6.2984   XZ=              2.1732   YZ=              3.1611

  Exact polarizability:  80.467  -5.162  73.877  -1.828   3.191  71.853
 Approx polarizability: 109.768  -1.628 113.409  -5.104   4.086 111.215

                      1                      2                      3
                      A                      A                      A
 Frequencies --     52.8797               137.5724               177.5558
 Red. masses --      3.9345                 4.1253                 2.9567
 Frc consts  --      0.0065                 0.0460                 0.0549
 IR Inten    --      3.4266                 2.6787                 5.4308

                      4                      5                      6
                      A                      A                      A
 Frequencies --    235.8190               301.7436               338.8364
 Red. masses --      1.1874                 4.7878                 2.9929
 Frc consts  --      0.0389                 0.2568                 0.2025
 IR Inten    --     72.3667                 2.1753                10.8911

                      7                      8                      9
                      A                      A                      A
 Frequencies --    409.8488               495.3018               538.1327
 Red. masses --      3.4725                 3.0797                 2.3721
 Frc consts  --      0.3437                 0.4451                 0.4047
 IR Inten    --      0.8077                16.4594                 1.7352

                     10                     11                     12
                      A                      A                      A
 Frequencies --    620.2834               643.4748               767.0273
 Red. masses --      2.7611                 2.6275                 3.0073
 Frc consts  --      0.6259                 0.6410                 1.0424
 IR Inten    --      0.7686                 4.5225                 0.9591

                     13                     14                     15
                      A                      A                      A
 Frequencies --    826.1550               851.7035               870.1819
 Red. masses --      2.6115                 5.8840                 2.9510
 Frc consts  --      1.0502                 2.5148                 1.3165
 IR Inten    --      0.3575                13.3381                27.0985

                     16                     17                     18
                      A                      A                      A
 Frequencies --    896.5451               927.9148               941.0321
 Red. masses --      2.3828                 2.0250                 2.1440
 Frc consts  --      1.1285                 1.0273                 1.1186
 IR Inten    --     24.9423                 0.5597                 3.9554

                     19                     20                     21
                      A                      A                      A
 Frequencies --    957.1751              1003.9628              1023.4687
 Red. masses --      2.2942                 1.3122                 1.3448
 Frc consts  --      1.2384                 0.7793                 0.8299
 IR Inten    --      4.3122                 5.7693                 1.5836

                     22                     23                     24
                      A                      A                      A
 Frequencies --   1054.5791              1073.7905              1093.5125
 Red. masses --      1.5310                 1.6372                 1.1968
 Frc consts  --      1.0032                 1.1122                 0.8432
 IR Inten    --      3.9347                20.6334                 3.0845

                     25                     26                     27
                      A                      A                      A
 Frequencies --   1133.4604              1139.1999              1148.6782
 Red. masses --      1.4095                 1.6226                 1.7359
 Frc consts  --      1.0669                 1.2407                 1.3495
 IR Inten    --     15.7566                22.9435                14.6496

                     28                     29                     30
                      A                      A                      A
 Frequencies --   1156.2629              1168.5339              1177.6942
 Red. masses --      1.4920                 1.4128                 1.9218
 Frc consts  --      1.1753                 1.1366                 1.5705
 IR Inten    --      5.8969                12.1439                54.0992

                     31                     32                     33
                      A                      A                      A
 Frequencies --   1212.4786              1230.3019              1244.0627
 Red. masses --      1.6970                 1.8591                 1.8943
 Frc consts  --      1.4699                 1.6580                 1.7274
 IR Inten    --      8.0464                16.2357                33.8431

                     34                     35                     36
                      A                      A                      A
 Frequencies --   1278.0372              1283.5709              1324.0144
 Red. masses --      2.1246                 1.4699                 1.9083
 Frc consts  --      2.0447                 1.4269                 1.9710
 IR Inten    --      6.7911                14.5374                11.4036

                     37                     38                     39
                      A                      A                      A
 Frequencies --   1443.1829              1452.3882              1505.5684
 Red. masses --      1.9423                 1.2583                 1.1007
 Frc consts  --      2.3835                 1.5638                 1.4700
 IR Inten    --      7.8618                58.9836                 6.9783

                     40                     41                     42
                      A                      A                      A
 Frequencies --   1526.3381              1546.9424              3039.9594
 Red. masses --      1.3432                 1.2022                 1.0612
 Frc consts  --      1.8437                 1.6951                 5.7783
 IR Inten    --      3.1643                 4.4350                46.8326

                     43                     44                     45
                      A                      A                      A
 Frequencies --   3055.8213              3079.7146              3083.6209
 Red. masses --      1.0567                 1.0850                 1.0518
 Frc consts  --      5.8139                 6.0632                 5.8926
 IR Inten    --     29.7881                31.4254                33.5975

                     46                     47                     48
                      A                      A                      A
 Frequencies --   3091.2537              3112.7255              3117.2335
 Red. masses --      1.0855                 1.0992                 1.0962
 Frc consts  --      6.1114                 6.2751                 6.2758
 IR Inten    --     28.9239                33.8569                44.8928

                     49                     50                     51
                      A                      A                      A
 Frequencies --   3130.0274              3170.4435              3818.4972
 Red. masses --      1.1084                 1.1194                 1.0649
 Frc consts  --      6.3978                 6.6297                 9.1480
 IR Inten    --     30.0887                28.3367                10.8948

 - Thermochemistry -
 -------------------
 Temperature   298.150 Kelvin.  Pressure   1.00000 Atm.
 Atom     1 has atomic number  8 and mass  15.99491

 Molecular mass:   126.06808 amu.
 Principal axes and moments of inertia in atomic units:
                           1         2         3
     Eigenvalues --   638.520071323.120131598.38339
           X            0.99887  -0.04749   0.00293
           Y            0.04736   0.99833   0.03316
           Z           -0.00450  -0.03298   0.99945
 This molecule is an asymmetric top.
 Rotational symmetry number  1.
 Warning -- assumption of classical behavior for rotation
           may cause significant error
 Rotational temperatures (Kelvin)      0.13565     0.06546     0.05419
 Rotational constants (GHZ):           2.82644     1.36400     1.12910
 Zero-point vibrational energy     418145.7 (Joules/Mol)
                                   99.93923 (Kcal/Mol)
 Warning -- explicit consideration of  10 degrees of freedom as
           vibrations may cause significant error
 Vibrational temperatures:     76.08   197.94   255.46   339.29   434.14
          (Kelvin)            487.51   589.68   712.63   774.25   892.45
                              925.82  1103.58  1188.65  1225.41  1252.00
                             1289.93  1335.06  1353.93  1377.16  1444.48
                             1472.54  1517.30  1544.94  1573.32  1630.79
                             1639.05  1652.69  1663.60  1681.26  1694.44
                             1744.48  1770.13  1789.93  1838.81  1846.77
                             1904.96  2076.42  2089.66  2166.17  2196.06
                             2225.70  4373.82  4396.64  4431.02  4436.64
                             4447.62  4478.51  4485.00  4503.41  4561.56
                             5493.96

 Zero-point correction=                           0.159263 (Hartree/Particle)
 Thermal correction to Energy=                    0.167353
 Thermal correction to Enthalpy=                  0.168297
 Thermal correction to Gibbs Free Energy=         0.126197
 Sum of electronic and zero-point Energies=           -422.945397
 Sum of electronic and thermal Energies=              -422.937307
 Sum of electronic and thermal Enthalpies=            -422.936363
 Sum of electronic and thermal Free Energies=         -422.978463

                     E (Thermal)             CV                S
                      KCal/Mol        Cal/Mol-Kelvin    Cal/Mol-Kelvin
 Total                  105.016             31.308             88.607
 Electronic               0.000              0.000              0.000
 Translational            0.889              2.981             40.409
 Rotational               0.889              2.981             28.692
 Vibrational            103.238             25.346             19.507
 Vibration     1          0.596              1.976              4.707
 Vibration     2          0.614              1.916              2.837
 Vibration     3          0.628              1.870              2.354
 Vibration     4          0.655              1.786              1.834
 Vibration     5          0.694              1.670              1.407
 Vibration     6          0.719              1.598              1.218
 Vibration     7          0.774              1.449              0.927
 Vibration     8          0.851              1.260              0.670
 Vibration     9          0.893              1.166              0.569
 Vibration    10          0.980              0.989              0.416

 Normal termination of Gaussian 09 at Mon Jan 27 23:44:30 2020.
