 Gaussian 09, Revision D.01,
 Gaussian 09:  ES64L-G09RevD.01 24-Apr-2013

 -----------------------------
 # b3lyp 6-31G(2df,p) opt Freq
 -----------------------------

 -----
 titel
 -----
 Symbolic Z-matrix:
 Charge =  0 Multiplicity = 1

 SCF Done:  E(RB3LYP) =  -423.158541606     A.U. after   14 cycles
 Optimization completed.
    -- Stationary point found.
 Normal termination of Gaussian 09 at Mon Jan 27 18:07:15 2020.

 ----------------------------------------------------------------------
 #N Geom=AllCheck Guess=TCheck SCRF=Check GenChk RB3LYP/6-31G(2df,p) Fr
 eq
 ----------------------------------------------------------------------

 Structure from the checkpoint file:  "/scratch/puck/g09_414152ed-9e11-461b-b623-3dc4496717d2/Gau-17013.chk"
 -----
 titel
 -----
 Charge =  0 Multiplicity = 1

                         Standard orientation:
 ---------------------------------------------------------------------
 Center     Atomic      Atomic             Coordinates (Angstroms)
 Number     Number       Type             X           Y           Z
 ---------------------------------------------------------------------
      1          6           0       -0.234862    2.162255   -0.381818
      2          6           0       -0.432435    0.721894   -0.004762
      3          8           0       -1.405579    0.449385    1.027830
      4          6           0       -1.629425   -0.081727   -0.281483
      5          6           0       -1.183323   -1.520601   -0.414448
      6          8           0        0.137656   -1.555644    0.120858
      7          6           0        0.702746   -0.263623    0.052759
      8          6           0        1.983637   -0.067995    0.793256
      9          6           0        1.982921   -0.084974   -0.726018
     10          1           0       -1.190332    2.689516   -0.338603
     11          1           0        0.454274    2.657760    0.311038
     12          1           0        0.172864    2.256749   -1.392424
     13          1           0       -2.497773    0.289302   -0.820434
     14          1           0       -1.794115   -2.224283    0.160037
     15          1           0       -1.202355   -1.819095   -1.475149
     16          1           0        2.148425    0.875579    1.302185
     17          1           0        2.380107   -0.936823    1.305857
     18          1           0        2.166693    0.843624   -1.255572
     19          1           0        2.370034   -0.973626   -1.211361
 ---------------------------------------------------------------------

 SCF Done:  E(RB3LYP) =  -423.158541606     A.U. after    1 cycles

 The electronic state is 1-A.
 Alpha  occ. eigenvalues --  -19.14654 -19.14184 -10.24448 -10.24077 -10.23587
 Alpha  occ. eigenvalues --  -10.23238 -10.19084 -10.18567 -10.18538  -1.08249
 Alpha  occ. eigenvalues --   -1.02611  -0.85419  -0.75301  -0.72579  -0.66177
 Alpha  occ. eigenvalues --   -0.60629  -0.59806  -0.54826  -0.51068  -0.49181
 Alpha  occ. eigenvalues --   -0.47335  -0.45575  -0.43292  -0.42398  -0.41044
 Alpha  occ. eigenvalues --   -0.38737  -0.38344  -0.36674  -0.34509  -0.32996
 Alpha  occ. eigenvalues --   -0.30691  -0.29580  -0.25665  -0.23305
 Alpha virt. eigenvalues --    0.08208   0.09490   0.09910   0.11847   0.12702
 Alpha virt. eigenvalues --    0.13266   0.13759   0.14343   0.15950   0.16236
 Alpha virt. eigenvalues --    0.17318   0.17902   0.21055   0.21732   0.22480

 Mulliken charges:
               1
     1  C   -0.505271
     2  C    0.321237
     3  O   -0.293846
     4  C   -0.044849
     5  C   -0.123441
     6  O   -0.303217
     7  C    0.424039
     8  C   -0.327623
     9  C   -0.340902
    10  H    0.136516
    11  H    0.132158
    12  H    0.130410
    13  H    0.097072
    14  H    0.119354
    15  H    0.095485
    16  H    0.118136
    17  H    0.130175
    18  H    0.110948
    19  H    0.123617
 Sum of Mulliken charges =   0.00000

 Dipole moment (field-independent basis, Debye):
    X=              0.0102    Y=              1.0278    Z=             -2.0666  Tot=              2.3081
 Quadrupole moment (field-independent basis, Debye-Ang):
   XX=            -51.1954   YY=            -51.9615   ZZ=            -54.4002
   XY=              2.1800   XZ=              3.5277   YZ=             -0.0555

  Exact polarizability:  84.261   5.201  76.293   2.735   1.210  64.958
 Approx polarizability: 116.007   7.998 104.881   1.034   2.482 104.557

                      1                      2                      3
                      A                      A                      A
 Frequencies --    104.4401               187.5322               221.0168
 Red. masses --      3.6089                 1.1393                 2.4569
 Frc consts  --      0.0232                 0.0236                 0.0707
 IR Inten    --      2.1703                 0.6920                 1.1698

                      4                      5                      6
                      A                      A                      A
 Frequencies --    227.9861               266.3852               364.9993
 Red. masses --      2.3421                 2.1131                 3.1074
 Frc consts  --      0.0717                 0.0883                 0.2439
 IR Inten    --      0.7707                 1.4397                 0.4547

                      7                      8                      9
                      A                      A                      A
 Frequencies --    379.3250               445.7301               483.8580
 Red. masses --      2.6787                 3.9152                 4.6885
 Frc consts  --      0.2271                 0.4583                 0.6467
 IR Inten    --      1.2625                 3.9447                 7.0889

                     10                     11                     12
                      A                      A                      A
 Frequencies --    579.0710               620.7476               727.1601
 Red. masses --      3.7049                 3.9155                 5.1567
 Frc consts  --      0.7320                 0.8889                 1.6065
 IR Inten    --      1.0526                 4.7666                 8.4622

                     13                     14                     15
                      A                      A                      A
 Frequencies --    765.4379               808.8035               856.5012
 Red. masses --      1.0746                 3.6946                 2.3277
 Frc consts  --      0.3710                 1.4240                 1.0061
 IR Inten    --      2.5965                11.4510                23.6748

                     16                     17                     18
                      A                      A                      A
 Frequencies --    886.1777               903.8349               933.6754
 Red. masses --      2.3327                 1.5583                 2.3253
 Frc consts  --      1.0793                 0.7500                 1.1943
 IR Inten    --     26.5228                 0.7096                10.7970

                     19                     20                     21
                      A                      A                      A
 Frequencies --    958.6733               975.4535               983.0890
 Red. masses --      2.2636                 3.3687                 1.4491
 Frc consts  --      1.2257                 1.8885                 0.8251
 IR Inten    --     11.9911                16.7829                 0.8012

                     22                     23                     24
                      A                      A                      A
 Frequencies --   1043.4540              1053.4006              1073.3681
 Red. masses --      1.9605                 1.6474                 1.4761
 Frc consts  --      1.2577                 1.0771                 1.0020
 IR Inten    --      1.6362                 1.7100                 4.0853

                     25                     26                     27
                      A                      A                      A
 Frequencies --   1083.4037              1108.6282              1117.4472
 Red. masses --      3.3875                 2.2620                 1.8639
 Frc consts  --      2.3427                 1.6380                 1.3713
 IR Inten    --     50.7732                33.3809                 4.4127

                     28                     29                     30
                      A                      A                      A
 Frequencies --   1168.4244              1189.6019              1230.4849
 Red. masses --      2.0596                 1.2740                 1.1532
 Frc consts  --      1.6566                 1.0622                 1.0288
 IR Inten    --     18.7200                 0.0973                 6.1448

                     31                     32                     33
                      A                      A                      A
 Frequencies --   1278.5203              1291.0960              1371.9654
 Red. masses --      3.3289                 1.4261                 1.6257
 Frc consts  --      3.2060                 1.4006                 1.8029
 IR Inten    --     67.7205                 2.7279                 4.4530

                     34                     35                     36
                      A                      A                      A
 Frequencies --   1391.1373              1409.8893              1449.1352
 Red. masses --      2.5117                 1.2789                 1.1119
 Frc consts  --      2.8639                 1.4978                 1.3757
 IR Inten    --      1.4612                 7.2867                 2.5727

                     37                     38                     39
                      A                      A                      A
 Frequencies --   1459.8087              1488.2589              1496.1834
 Red. masses --      2.7139                 1.1287                 1.1542
 Frc consts  --      3.4075                 1.4729                 1.5222
 IR Inten    --      6.5029                 8.3403                 4.3076

                     40                     41                     42
                      A                      A                      A
 Frequencies --   1501.2887              1507.5231              2978.0143
 Red. masses --      1.3608                 1.2390                 1.0697
 Frc consts  --      1.8070                 1.6590                 5.5893
 IR Inten    --      9.2842                 2.3191                70.6965

                     43                     44                     45
                      A                      A                      A
 Frequencies --   3040.5051              3075.4976              3103.9588
 Red. masses --      1.0376                 1.0931                 1.0987
 Frc consts  --      5.6517                 6.0915                 6.2370
 IR Inten    --     16.2566                30.7159                12.2532

                     46                     47                     48
                      A                      A                      A
 Frequencies --   3131.3537              3134.3223              3137.6989
 Red. masses --      1.0921                 1.0599                 1.0570
 Frc consts  --      6.3093                 6.1349                 6.1315
 IR Inten    --      6.9466                17.3747                 6.5190

                     49                     50                     51
                      A                      A                      A
 Frequencies --   3147.8131              3218.9897              3233.0104
 Red. masses --      1.0917                 1.1181                 1.1155
 Frc consts  --      6.3732                 6.8263                 6.8695
 IR Inten    --     25.5661                 0.4059                 9.8727

 - Thermochemistry -
 -------------------
 Temperature   298.150 Kelvin.  Pressure   1.00000 Atm.
 Atom     1 has atomic number  6 and mass  12.00000

 Molecular mass:   126.06808 amu.
 Principal axes and moments of inertia in atomic units:
                           1         2         3
     Eigenvalues --   754.44390 944.835761362.42034
           X            0.99800   0.05860   0.02355
           Y           -0.05839   0.99825  -0.00951
           Z           -0.02407   0.00811   0.99968
 This molecule is an asymmetric top.
 Rotational symmetry number  1.
 Warning -- assumption of classical behavior for rotation
           may cause significant error
 Rotational temperatures (Kelvin)      0.11480     0.09167     0.06357
 Rotational constants (GHZ):           2.39215     1.91011     1.32466
 Zero-point vibrational energy     416265.0 (Joules/Mol)
                                   99.48973 (Kcal/Mol)
 Warning -- explicit consideration of  11 degrees of freedom as
           vibrations may cause significant error
 Vibrational temperatures:    150.27   269.82   317.99   328.02   383.27
          (Kelvin)            525.15   545.76   641.31   696.16   833.15
                              893.12  1046.22  1101.29  1163.69  1232.31
                             1275.01  1300.42  1343.35  1379.32  1403.46
                             1414.44  1501.30  1515.61  1544.34  1558.77
                             1595.07  1607.76  1681.10  1711.57  1770.39
                             1839.50  1857.60  1973.95  2001.53  2028.51
                             2084.98  2100.34  2141.27  2152.67  2160.02
                             2168.99  4284.69  4374.60  4424.95  4465.90
                             4505.31  4509.59  4514.44  4529.00  4631.40
                             4651.57

 Zero-point correction=                           0.158547 (Hartree/Particle)
 Thermal correction to Energy=                    0.166600
 Thermal correction to Enthalpy=                  0.167545
 Thermal correction to Gibbs Free Energy=         0.126332
 Sum of electronic and zero-point Energies=           -422.999995
 Sum of electronic and thermal Energies=              -422.991941
 Sum of electronic and thermal Enthalpies=            -422.990997
 Sum of electronic and thermal Free Energies=         -423.032209

                     E (Thermal)             CV                S
                      KCal/Mol        Cal/Mol-Kelvin    Cal/Mol-Kelvin
 Total                  104.543             31.799             86.739
 Electronic               0.000              0.000              0.000
 Translational            0.889              2.981             40.409
 Rotational               0.889              2.981             28.365
 Vibrational            102.766             25.837             17.966
 Vibration     1          0.605              1.946              3.370
 Vibration     2          0.632              1.857              2.252
 Vibration     3          0.648              1.809              1.951
 Vibration     4          0.651              1.798              1.895
 Vibration     5          0.672              1.735              1.620
 Vibration     6          0.738              1.544              1.101
 Vibration     7          0.749              1.514              1.042
 Vibration     8          0.805              1.370              0.809
 Vibration     9          0.840              1.286              0.700
 Vibration    10          0.936              1.077              0.487
 Vibration    11          0.981              0.988              0.415

 Optimization completed.
    -- Stationary point found.
 Normal termination of Gaussian 09 at Mon Jan 27 20:00:02 2020.
