 Gaussian 09, Revision D.01,
 Gaussian 09:  ES64L-G09RevD.01 24-Apr-2013

 -----------------------------
 # b3lyp 6-31G(2df,p) opt Freq
 -----------------------------

 -----
 titel
 -----
 Symbolic Z-matrix:
 Charge =  0 Multiplicity = 1

 SCF Done:  E(RB3LYP) =  -423.180010870     A.U. after   14 cycles
 Optimization completed.
    -- Stationary point found.
 Normal termination of Gaussian 09 at Tue Jan 28 01:52:01 2020.

 ----------------------------------------------------------------------
 #N Geom=AllCheck Guess=TCheck SCRF=Check GenChk RB3LYP/6-31G(2df,p) Fr
 eq
 ----------------------------------------------------------------------

 Structure from the checkpoint file:  "/scratch/puck/g09_8ca0ded6-6978-4acf-864d-7e4cb2b7a021/Gau-110860.chk"
 -----
 titel
 -----
 Charge =  0 Multiplicity = 1

                         Standard orientation:
 ---------------------------------------------------------------------
 Center     Atomic      Atomic             Coordinates (Angstroms)
 Number     Number       Type             X           Y           Z
 ---------------------------------------------------------------------
      1          6           0        2.389273   -0.595680   -0.757307
      2          6           0        1.132768   -1.068740   -0.076383
      3          8           0        0.959149   -0.700449    1.293934
      4          6           0        0.064285   -0.139561    0.355056
      5          6           0       -1.471601   -0.295219    0.335356
      6          6           0       -2.071160   -1.447664   -0.457997
      7          6           0       -1.573845    1.145412   -0.268409
      8          6           0       -0.064607    1.331447   -0.005501
      9          8           0        0.689758    2.261040   -0.037172
     10          1           0        2.303235   -0.715528   -1.842487
     11          1           0        2.574140    0.456415   -0.530358
     12          1           0        3.246730   -1.187703   -0.420812
     13          1           0        0.820654   -2.092170   -0.292519
     14          1           0       -1.846596   -0.304260    1.364032
     15          1           0       -3.163303   -1.378187   -0.487081
     16          1           0       -1.707692   -1.447716   -1.491587
     17          1           0       -1.813504   -2.413069   -0.009576
     18          1           0       -1.810583    1.161261   -1.337587
     19          1           0       -2.225016    1.856261    0.244990
 ---------------------------------------------------------------------

 SCF Done:  E(RB3LYP) =  -423.180010870     A.U. after    1 cycles

 The electronic state is 1-A.
 Alpha  occ. eigenvalues --  -19.16421 -19.14278 -10.27183 -10.25230 -10.24462
 Alpha  occ. eigenvalues --  -10.20595 -10.19699 -10.18941 -10.18495  -1.08715
 Alpha  occ. eigenvalues --   -1.04836  -0.84997  -0.75129  -0.73044  -0.65994
 Alpha  occ. eigenvalues --   -0.61545  -0.59622  -0.52854  -0.49364  -0.48436
 Alpha  occ. eigenvalues --   -0.45986  -0.44684  -0.42515  -0.41908  -0.41469
 Alpha  occ. eigenvalues --   -0.40380  -0.38393  -0.37552  -0.36360  -0.34855
 Alpha  occ. eigenvalues --   -0.33851  -0.30274  -0.28277  -0.24098
 Alpha virt. eigenvalues --   -0.03665   0.08354   0.10494   0.10884   0.12202
 Alpha virt. eigenvalues --    0.13278   0.13751   0.15000   0.15589   0.16164
 Alpha virt. eigenvalues --    0.17138   0.17848   0.18527   0.19168   0.20515

 Mulliken charges:
               1
     1  C   -0.429121
     2  C   -0.012896
     3  O   -0.282372
     4  C    0.312474
     5  C   -0.080647
     6  C   -0.413976
     7  C   -0.373056
     8  C    0.343455
     9  O   -0.308231
    10  H    0.122664
    11  H    0.159774
    12  H    0.131760
    13  H    0.099050
    14  H    0.097804
    15  H    0.123640
    16  H    0.115971
    17  H    0.126863
    18  H    0.131089
    19  H    0.135754
 Sum of Mulliken charges =   0.00000

 Dipole moment (field-independent basis, Debye):
    X=             -1.9165    Y=             -2.1306    Z=             -1.5869  Tot=              3.2758
 Quadrupole moment (field-independent basis, Debye-Ang):
   XX=            -50.3554   YY=            -57.6698   ZZ=            -54.2432
   XY=             -3.9024   XZ=             -2.6120   YZ=              1.6985

  Exact polarizability:  88.883  -2.926  80.279  -1.779   0.489  61.895
 Approx polarizability: 118.454  -1.833 119.549  -0.074  -1.010  99.593

                      1                      2                      3
                      A                      A                      A
 Frequencies --     70.9476               130.6069               152.5717
 Red. masses --      2.9095                 3.5095                 2.9561
 Frc consts  --      0.0086                 0.0353                 0.0405
 IR Inten    --      2.2255                 2.5322                 1.5646

                      4                      5                      6
                      A                      A                      A
 Frequencies --    190.7454               215.2685               237.6722
 Red. masses --      2.3464                 1.3143                 1.1322
 Frc consts  --      0.0503                 0.0359                 0.0377
 IR Inten    --      1.7272                 0.9295                 0.1676

                      7                      8                      9
                      A                      A                      A
 Frequencies --    284.6659               361.1937               394.1995
 Red. masses --      3.0278                 3.4628                 3.1021
 Frc consts  --      0.1446                 0.2662                 0.2840
 IR Inten    --      0.2001                 1.0512                 0.4635

                     10                     11                     12
                      A                      A                      A
 Frequencies --    477.2896               494.7045               550.1060
 Red. masses --      3.2426                 2.7693                 2.2260
 Frc consts  --      0.4352                 0.3993                 0.3969
 IR Inten    --      7.9444                 0.2112                 2.4264

                     13                     14                     15
                      A                      A                      A
 Frequencies --    629.2285               663.4414               787.4363
 Red. masses --      4.7666                 4.3559                 2.6109
 Frc consts  --      1.1119                 1.1296                 0.9538
 IR Inten    --     13.8100                 0.4976                 9.6779

                     16                     17                     18
                      A                      A                      A
 Frequencies --    842.9485               852.3116               901.4737
 Red. masses --      2.8906                 2.8609                 1.8385
 Frc consts  --      1.2102                 1.2245                 0.8803
 IR Inten    --      9.3338                12.3691                 5.7817

                     19                     20                     21
                      A                      A                      A
 Frequencies --    936.1145              1016.6210              1027.2980
 Red. masses --      1.6501                 2.8895                 2.5243
 Frc consts  --      0.8520                 1.7595                 1.5696
 IR Inten    --      8.7596                41.3661                17.0971

                     22                     23                     24
                      A                      A                      A
 Frequencies --   1041.8168              1071.1270              1106.2023
 Red. masses --      1.5047                 2.2326                 2.0379
 Frc consts  --      0.9623                 1.5092                 1.4693
 IR Inten    --      0.3959                41.2888                 4.7861

                     25                     26                     27
                      A                      A                      A
 Frequencies --   1131.1629              1143.3399              1165.8466
 Red. masses --      2.3284                 1.9080                 1.7046
 Frc consts  --      1.7553                 1.4695                 1.3651
 IR Inten    --     13.2712                25.1964                 1.7894

                     28                     29                     30
                      A                      A                      A
 Frequencies --   1191.8890              1226.2697              1256.8002
 Red. masses --      1.6280                 1.7665                 1.4421
 Frc consts  --      1.3626                 1.5651                 1.3421
 IR Inten    --      3.1774                 1.6743                 2.7767

                     31                     32                     33
                      A                      A                      A
 Frequencies --   1340.6729              1361.9559              1408.9821
 Red. masses --      1.4694                 1.5216                 1.2817
 Frc consts  --      1.5561                 1.6629                 1.4991
 IR Inten    --      1.6123                 6.6127                 6.5980

                     34                     35                     36
                      A                      A                      A
 Frequencies --   1411.9167              1436.6985              1459.3280
 Red. masses --      1.2550                 1.1770                 1.8516
 Frc consts  --      1.4740                 1.4314                 2.3232
 IR Inten    --      3.6209                12.5891                26.7821

                     37                     38                     39
                      A                      A                      A
 Frequencies --   1489.9998              1493.7774              1500.2531
 Red. masses --      1.0698                 1.0480                 1.0650
 Frc consts  --      1.3994                 1.3778                 1.4123
 IR Inten    --      3.7011                 3.9481                 2.9166

                     40                     41                     42
                      A                      A                      A
 Frequencies --   1503.3616              1882.0425              3029.3780
 Red. masses --      1.3005                12.7762                 1.0353
 Frc consts  --      1.7317                26.6630                 5.5979
 IR Inten    --     10.4708               218.7166                19.0453

                     43                     44                     45
                      A                      A                      A
 Frequencies --   3039.3525              3055.3005              3058.1072
 Red. masses --      1.0364                 1.0819                 1.0641
 Frc consts  --      5.6405                 5.9505                 5.8631
 IR Inten    --     17.9270                 5.7518                 8.6662

                     46                     47                     48
                      A                      A                      A
 Frequencies --   3095.1783              3098.7096              3101.4136
 Red. masses --      1.0876                 1.1012                 1.1004
 Frc consts  --      6.1389                 6.2297                 6.2361
 IR Inten    --     22.8295                26.0270                24.1242

                     49                     50                     51
                      A                      A                      A
 Frequencies --   3102.9088              3120.2981              3140.6202
 Red. masses --      1.1006                 1.1027                 1.1012
 Frc consts  --      6.2431                 6.3255                 6.3995
 IR Inten    --     14.7093                 9.9510                 7.8693

 - Thermochemistry -
 -------------------
 Temperature   298.150 Kelvin.  Pressure   1.00000 Atm.
 Atom     1 has atomic number  6 and mass  12.00000

 Molecular mass:   126.06808 amu.
 Principal axes and moments of inertia in atomic units:
                           1         2         3
     Eigenvalues --   864.441551123.879601632.27817
           X            0.99986  -0.00325  -0.01669
           Y            0.00368   0.99965   0.02619
           Z            0.01660  -0.02625   0.99952
 This molecule is an asymmetric top.
 Rotational symmetry number  1.
 Warning -- assumption of classical behavior for rotation
           may cause significant error
 Rotational temperatures (Kelvin)      0.10020     0.07707     0.05306
 Rotational constants (GHZ):           2.08775     1.60581     1.10566
 Zero-point vibrational energy     410806.9 (Joules/Mol)
                                   98.18521 (Kcal/Mol)
 Warning -- explicit consideration of  12 degrees of freedom as
           vibrations may cause significant error
 Vibrational temperatures:    102.08   187.91   219.52   274.44   309.72
          (Kelvin)            341.96   409.57   519.68   567.16   686.71
                              711.77   791.48   905.32   954.54  1132.94
                             1212.81  1226.28  1297.02  1346.86  1462.69
                             1478.05  1498.94  1541.11  1591.58  1627.49
                             1645.01  1677.39  1714.86  1764.33  1808.25
                             1928.93  1959.55  2027.21  2031.43  2067.09
                             2099.64  2143.77  2149.21  2158.53  2163.00
                             2707.84  4358.59  4372.94  4395.89  4399.93
                             4453.27  4458.35  4462.24  4464.39  4489.41
                             4518.65

 Zero-point correction=                           0.156468 (Hartree/Particle)
 Thermal correction to Energy=                    0.165700
 Thermal correction to Enthalpy=                  0.166645
 Thermal correction to Gibbs Free Energy=         0.122493
 Sum of electronic and zero-point Energies=           -423.023543
 Sum of electronic and thermal Energies=              -423.014310
 Sum of electronic and thermal Enthalpies=            -423.013366
 Sum of electronic and thermal Free Energies=         -423.057518

                     E (Thermal)             CV                S
                      KCal/Mol        Cal/Mol-Kelvin    Cal/Mol-Kelvin
 Total                  103.979             34.163             92.925
 Electronic               0.000              0.000              0.000
 Translational            0.889              2.981             40.409
 Rotational               0.889              2.981             28.852
 Vibrational            102.201             28.202             23.665
 Vibration     1          0.598              1.968              4.127
 Vibration     2          0.612              1.923              2.937
 Vibration     3          0.619              1.900              2.640
 Vibration     4          0.634              1.853              2.221
 Vibration     5          0.645              1.818              1.999
 Vibration     6          0.656              1.783              1.820
 Vibration     7          0.683              1.702              1.505
 Vibration     8          0.735              1.552              1.117
 Vibration     9          0.761              1.483              0.984
 Vibration    10          0.834              1.300              0.717
 Vibration    11          0.850              1.262              0.671
 Vibration    12          0.905              1.139              0.544

 Normal termination of Gaussian 09 at Tue Jan 28 02:31:58 2020.
