 Gaussian 09, Revision D.01,
 Gaussian 09:  ES64L-G09RevD.01 24-Apr-2013

 -----------------------------
 # b3lyp 6-31G(2df,p) opt Freq
 -----------------------------

 -----
 titel
 -----
 Symbolic Z-matrix:
 Charge =  0 Multiplicity = 1

 SCF Done:  E(RB3LYP) =  -423.181971878     A.U. after   14 cycles
 Optimization completed.
    -- Stationary point found.
 Normal termination of Gaussian 09 at Tue Jan 28 12:09:34 2020.

 ----------------------------------------------------------------------
 #N Geom=AllCheck Guess=TCheck SCRF=Check GenChk RB3LYP/6-31G(2df,p) Fr
 eq
 ----------------------------------------------------------------------

 Structure from the checkpoint file:  "/scratch/puck/g09_f692eb69-40e0-49a7-9053-6d47aa7f8f13/Gau-19195.chk"
 -----
 titel
 -----
 Charge =  0 Multiplicity = 1

                         Standard orientation:
 ---------------------------------------------------------------------
 Center     Atomic      Atomic             Coordinates (Angstroms)
 Number     Number       Type             X           Y           Z
 ---------------------------------------------------------------------
      1          6           0        2.641221    0.229602    0.293858
      2          8           0        1.678724   -0.692314   -0.203903
      3          6           0        0.385076   -0.240222   -0.187134
      4          6           0       -0.632896   -1.329733   -0.639616
      5          6           0       -1.934030   -0.821495    0.039797
      6          6           0       -1.401675    0.470547    0.750480
      7          8           0       -0.094422    0.047116    1.143566
      8          6           0       -1.097844    1.487570   -0.345371
      9          6           0        0.020374    1.055085   -0.925067
     10          1           0        2.450179    0.470226    1.344437
     11          1           0        3.613300   -0.257570    0.197902
     12          1           0        2.645412    1.161117   -0.287278
     13          1           0       -0.701692   -1.408713   -1.725985
     14          1           0       -0.308785   -2.291631   -0.237417
     15          1           0       -2.744475   -0.613736   -0.662552
     16          1           0       -2.297700   -1.531850    0.785709
     17          1           0       -1.976396    0.812476    1.610164
     18          1           0       -1.748572    2.298343   -0.645531
     19          1           0        0.512960    1.414803   -1.818427
 ---------------------------------------------------------------------

 SCF Done:  E(RB3LYP) =  -423.181971878     A.U. after    1 cycles

 The electronic state is 1-A.
 Alpha  occ. eigenvalues --  -19.14826 -19.13107 -10.27764 -10.23495 -10.22134
 Alpha  occ. eigenvalues --  -10.18559 -10.18366 -10.18175 -10.17927  -1.07299
 Alpha  occ. eigenvalues --   -1.01729  -0.80272  -0.75306  -0.73646  -0.67436
 Alpha  occ. eigenvalues --   -0.59318  -0.56843  -0.55227  -0.52935  -0.48488
 Alpha  occ. eigenvalues --   -0.45242  -0.44896  -0.44205  -0.42746  -0.40228
 Alpha  occ. eigenvalues --   -0.38857  -0.35320  -0.35048  -0.34600  -0.33473
 Alpha  occ. eigenvalues --   -0.30749  -0.26781  -0.25811  -0.24891
 Alpha virt. eigenvalues --    0.00743   0.09981   0.11451   0.12292   0.13294
 Alpha virt. eigenvalues --    0.13920   0.15159   0.15897   0.16455   0.17209
 Alpha virt. eigenvalues --    0.17442   0.18646   0.19567   0.21446   0.22394

 Mulliken charges:
               1
     1  C   -0.259674
     2  O   -0.305088
     3  C    0.474178
     4  C   -0.257217
     5  C   -0.216703
     6  C    0.001805
     7  O   -0.286863
     8  C   -0.077265
     9  C   -0.167747
    10  H    0.136390
    11  H    0.126330
    12  H    0.111657
    13  H    0.102711
    14  H    0.115420
    15  H    0.099411
    16  H    0.108428
    17  H    0.080300
    18  H    0.105763
    19  H    0.108165
 Sum of Mulliken charges =   0.00000

 Dipole moment (field-independent basis, Debye):
    X=             -0.8135    Y=              1.0123    Z=             -0.8950  Tot=              1.5772
 Quadrupole moment (field-independent basis, Debye-Ang):
   XX=            -47.9122   YY=            -52.9180   ZZ=            -53.7036
   XY=              0.9207   XZ=             -0.3856   YZ=             -0.8800

  Exact polarizability:  88.195  -2.153  71.483  -4.749  -1.643  64.895
 Approx polarizability: 123.854  -8.548 104.553 -11.270  -0.355 102.815

                      1                      2                      3
                      A                      A                      A
 Frequencies --    100.4278               156.0561               197.5470
 Red. masses --      1.6457                 1.4278                 2.9658
 Frc consts  --      0.0098                 0.0205                 0.0682
 IR Inten    --      2.7032                 3.0711                 3.5307

                      4                      5                      6
                      A                      A                      A
 Frequencies --    245.8409               360.1139               410.1874
 Red. masses --      1.9093                 2.5947                 4.4571
 Frc consts  --      0.0680                 0.1983                 0.4418
 IR Inten    --      1.1355                 1.4879                 1.1275

                      7                      8                      9
                      A                      A                      A
 Frequencies --    443.0671               489.5510               603.6592
 Red. masses --      3.4328                 3.2337                 3.7159
 Frc consts  --      0.3970                 0.4566                 0.7978
 IR Inten    --      2.2575                 2.5008                 3.8509

                     10                     11                     12
                      A                      A                      A
 Frequencies --    642.4479               713.7090               732.0254
 Red. masses --      5.0864                 3.5495                 1.7329
 Frc consts  --      1.2369                 1.0653                 0.5471
 IR Inten    --      3.9658                 2.5331                24.6198

                     13                     14                     15
                      A                      A                      A
 Frequencies --    792.0118               820.6297               835.4547
 Red. masses --      3.3495                 3.5270                 1.8523
 Frc consts  --      1.2379                 1.3994                 0.7618
 IR Inten    --      1.3102                16.5732                 4.0545

                     16                     17                     18
                      A                      A                      A
 Frequencies --    877.4855               910.9938               946.2678
 Red. masses --      2.5644                 2.2355                 1.3747
 Frc consts  --      1.1633                 1.0931                 0.7252
 IR Inten    --     11.0888                 7.4391                 3.9801

                     19                     20                     21
                      A                      A                      A
 Frequencies --    956.6228               992.1749              1009.4933
 Red. masses --      2.6602                 2.9884                 1.8349
 Frc consts  --      1.4343                 1.7333                 1.1017
 IR Inten    --     11.7191                31.2572                20.6441

                     22                     23                     24
                      A                      A                      A
 Frequencies --   1044.3118              1052.3442              1081.0445
 Red. masses --      5.0673                 4.0223                 1.9899
 Frc consts  --      3.2560                 2.6244                 1.3702
 IR Inten    --     16.5052                38.8787                21.7398

                     25                     26                     27
                      A                      A                      A
 Frequencies --   1102.2865              1176.0629              1180.9061
 Red. masses --      1.4892                 1.4529                 1.2806
 Frc consts  --      1.0661                 1.1840                 1.0522
 IR Inten    --     50.0429                19.5226                 0.7699

                     28                     29                     30
                      A                      A                      A
 Frequencies --   1204.1970              1222.3993              1229.4311
 Red. masses --      1.4832                 1.5861                 1.2177
 Frc consts  --      1.2672                 1.3963                 1.0844
 IR Inten    --     30.0716                19.9314                11.5021

                     31                     32                     33
                      A                      A                      A
 Frequencies --   1267.8470              1292.7100              1320.2120
 Red. masses --      1.6640                 1.5976                 1.4868
 Frc consts  --      1.5759                 1.5730                 1.5269
 IR Inten    --     57.4647                 9.5757                 3.1126

                     34                     35                     36
                      A                      A                      A
 Frequencies --   1333.6998              1353.7869              1478.4338
 Red. masses --      1.7346                 2.3553                 1.1061
 Frc consts  --      1.8179                 2.5432                 1.4245
 IR Inten    --     32.5745               156.1134                 2.4666

                     37                     38                     39
                      A                      A                      A
 Frequencies --   1483.4207              1484.4708              1499.4510
 Red. masses --      1.0857                 1.1369                 1.1165
 Frc consts  --      1.4076                 1.4761                 1.4791
 IR Inten    --      4.4541                 9.2568                 5.2668

                     40                     41                     42
                      A                      A                      A
 Frequencies --   1509.1394              1646.9778              3015.1354
 Red. masses --      1.0521                 6.4367                 1.0376
 Frc consts  --      1.4117                10.2871                 5.5578
 IR Inten    --      7.6814                 6.8220                41.2124

                     43                     44                     45
                      A                      A                      A
 Frequencies --   3066.9688              3079.6497              3086.8512
 Red. masses --      1.0582                 1.0594                 1.0969
 Frc consts  --      5.8648                 5.9200                 6.1582
 IR Inten    --     27.9853                24.8702                30.7475

                     46                     47                     48
                      A                      A                      A
 Frequencies --   3111.8689              3128.7385              3132.9618
 Red. masses --      1.1072                 1.0917                 1.1064
 Frc consts  --      6.3173                 6.2965                 6.3982
 IR Inten    --      5.1401                32.1885                35.1955

                     49                     50                     51
                      A                      A                      A
 Frequencies --   3134.0061              3210.1642              3236.7201
 Red. masses --      1.1031                 1.0862                 1.1088
 Frc consts  --      6.3838                 6.5952                 6.8439
 IR Inten    --     23.2138                 5.5145                 6.4033

 - Thermochemistry -
 -------------------
 Temperature   298.150 Kelvin.  Pressure   1.00000 Atm.
 Atom     1 has atomic number  6 and mass  12.00000

 Molecular mass:   126.06808 amu.
 Principal axes and moments of inertia in atomic units:
                           1         2         3
     Eigenvalues --   568.763711158.817341307.41042
           X            0.99947   0.03183   0.00734
           Y           -0.03178   0.99947  -0.00671
           Z           -0.00755   0.00648   0.99995
 This molecule is an asymmetric top.
 Rotational symmetry number  1.
 Warning -- assumption of classical behavior for rotation
           may cause significant error
 Rotational temperatures (Kelvin)      0.15228     0.07474     0.06625
 Rotational constants (GHZ):           3.17309     1.55740     1.38039
 Zero-point vibrational energy     421097.3 (Joules/Mol)
                                  100.64466 (Kcal/Mol)
 Warning -- explicit consideration of   9 degrees of freedom as
           vibrations may cause significant error
 Vibrational temperatures:    144.49   224.53   284.23   353.71   518.12
          (Kelvin)            590.17   637.47   704.35   868.53   924.34
                             1026.87  1053.22  1139.53  1180.70  1202.03
                             1262.50  1310.72  1361.47  1376.37  1427.52
                             1452.43  1502.53  1514.09  1555.38  1585.94
                             1692.09  1699.06  1732.57  1758.76  1768.87
                             1824.15  1859.92  1899.49  1918.89  1947.79
                             2127.13  2134.31  2135.82  2157.37  2171.31
                             2369.63  4338.10  4412.68  4430.92  4441.28
                             4477.28  4501.55  4507.63  4509.13  4618.70
                             4656.91

 Zero-point correction=                           0.160387 (Hartree/Particle)
 Thermal correction to Energy=                    0.168071
 Thermal correction to Enthalpy=                  0.169016
 Thermal correction to Gibbs Free Energy=         0.128382
 Sum of electronic and zero-point Energies=           -423.021584
 Sum of electronic and thermal Energies=              -423.013901
 Sum of electronic and thermal Enthalpies=            -423.012956
 Sum of electronic and thermal Free Energies=         -423.053590

                     E (Thermal)             CV                S
                      KCal/Mol        Cal/Mol-Kelvin    Cal/Mol-Kelvin
 Total                  105.466             30.513             85.521
 Electronic               0.000              0.000              0.000
 Translational            0.889              2.981             40.409
 Rotational               0.889              2.981             28.246
 Vibrational            103.689             24.552             16.866
 Vibration     1          0.604              1.949              3.446
 Vibration     2          0.620              1.896              2.597
 Vibration     3          0.637              1.843              2.156
 Vibration     4          0.660              1.770              1.760
 Vibration     5          0.735              1.554              1.122
 Vibration     6          0.774              1.448              0.926
 Vibration     7          0.803              1.376              0.817
 Vibration     8          0.845              1.273              0.685
 Vibration     9          0.962              1.024              0.443

 Optimization completed.
    -- Stationary point found.
 Normal termination of Gaussian 09 at Tue Jan 28 12:58:38 2020.
