 Gaussian 09, Revision D.01,
 Gaussian 09:  ES64L-G09RevD.01 24-Apr-2013

 -----------------------------
 # b3lyp 6-31G(2df,p) opt Freq
 -----------------------------

 -----
 titel
 -----
 Symbolic Z-matrix:
 Charge =  0 Multiplicity = 1

 SCF Done:  E(RB3LYP) =  -423.179253417     A.U. after   14 cycles
 Optimization completed.
    -- Stationary point found.
 Normal termination of Gaussian 09 at Tue Jan 28 01:56:06 2020.

 ----------------------------------------------------------------------
 #N Geom=AllCheck Guess=TCheck SCRF=Check GenChk RB3LYP/6-31G(2df,p) Fr
 eq
 ----------------------------------------------------------------------

 Structure from the checkpoint file:  "/scratch/puck/g09_338d4925-e8af-4ab1-8de8-4c6622d659af/Gau-26453.chk"
 -----
 titel
 -----
 Charge =  0 Multiplicity = 1

                         Standard orientation:
 ---------------------------------------------------------------------
 Center     Atomic      Atomic             Coordinates (Angstroms)
 Number     Number       Type             X           Y           Z
 ---------------------------------------------------------------------
      1          6           0       -2.695499   -0.417056   -0.852071
      2          6           0       -1.683932    0.463824   -0.167949
      3          8           0       -1.467272    0.235276    1.239223
      4          6           0       -0.404348   -0.033370    0.344891
      5          6           0        0.242408   -1.418672    0.170865
      6          6           0        1.581161   -0.673549   -0.001193
      7          8           0        2.665108   -0.994243   -0.393209
      8          6           0        0.964419    0.677983    0.415528
      9          6           0        1.267379    1.902530   -0.437740
     10          1           0       -2.595223   -0.342257   -1.940412
     11          1           0       -2.567694   -1.462073   -0.558796
     12          1           0       -3.712270   -0.109224   -0.587464
     13          1           0       -1.738505    1.522778   -0.427226
     14          1           0        0.210092   -2.023836    1.083364
     15          1           0       -0.072993   -2.036473   -0.674114
     16          1           0        1.212368    0.869183    1.469181
     17          1           0        0.720815    2.780006   -0.078874
     18          1           0        2.336753    2.130144   -0.403735
     19          1           0        0.994438    1.733339   -1.484014
 ---------------------------------------------------------------------

 SCF Done:  E(RB3LYP) =  -423.179253417     A.U. after    1 cycles

 The electronic state is 1-A.
 Alpha  occ. eigenvalues --  -19.15420 -19.14149 -10.27400 -10.24945 -10.24525
 Alpha  occ. eigenvalues --  -10.20126 -10.19740 -10.19070 -10.18981  -1.07707
 Alpha  occ. eigenvalues --   -1.04991  -0.84745  -0.75374  -0.74458  -0.64665
 Alpha  occ. eigenvalues --   -0.62959  -0.57276  -0.52492  -0.50040  -0.47484
 Alpha  occ. eigenvalues --   -0.46968  -0.44538  -0.43517  -0.42149  -0.41385
 Alpha  occ. eigenvalues --   -0.39977  -0.38718  -0.38243  -0.36681  -0.35323
 Alpha  occ. eigenvalues --   -0.34062  -0.29580  -0.27076  -0.24080
 Alpha virt. eigenvalues --   -0.02636   0.08747   0.09358   0.10409   0.11822
 Alpha virt. eigenvalues --    0.12427   0.13182   0.14358   0.15152   0.15466
 Alpha virt. eigenvalues --    0.17191   0.17479   0.18525   0.19924   0.20567

 Mulliken charges:
               1
     1  C   -0.418381
     2  C   -0.018150
     3  O   -0.295305
     4  C    0.409877
     5  C   -0.446770
     6  C    0.394898
     7  O   -0.296867
     8  C   -0.185198
     9  C   -0.413889
    10  H    0.124782
    11  H    0.129892
    12  H    0.134334
    13  H    0.093910
    14  H    0.145081
    15  H    0.135344
    16  H    0.118730
    17  H    0.127253
    18  H    0.139199
    19  H    0.121260
 Sum of Mulliken charges =   0.00000

 Dipole moment (field-independent basis, Debye):
    X=             -1.8900    Y=              0.7868    Z=             -0.8412  Tot=              2.2133
 Quadrupole moment (field-independent basis, Debye-Ang):
   XX=            -60.6461   YY=            -51.2060   ZZ=            -54.0430
   XY=              4.0224   XZ=              6.0524   YZ=             -1.4234

  Exact polarizability:  89.601   0.215  76.276   2.222  -0.249  63.041
 Approx polarizability: 122.937  -4.871 106.050  -2.607   1.090 101.545

                      1                      2                      3
                      A                      A                      A
 Frequencies --     56.9452               132.5343               175.6849
 Red. masses --      4.1325                 2.9460                 1.7843
 Frc consts  --      0.0079                 0.0305                 0.0324
 IR Inten    --      4.4743                 0.3993                 0.2067

                      4                      5                      6
                      A                      A                      A
 Frequencies --    179.3216               193.6013               203.7289
 Red. masses --      1.4774                 1.3103                 1.7199
 Frc consts  --      0.0280                 0.0289                 0.0421
 IR Inten    --      1.3770                 0.1378                 1.4979

                      7                      8                      9
                      A                      A                      A
 Frequencies --    273.9860               379.9299               424.9323
 Red. masses --      3.1105                 4.3249                 3.4988
 Frc consts  --      0.1376                 0.3678                 0.3722
 IR Inten    --      3.5208                 7.1159                 3.3488

                     10                     11                     12
                      A                      A                      A
 Frequencies --    454.7094               481.0022               547.4769
 Red. masses --      2.4116                 3.1950                 3.9684
 Frc consts  --      0.2938                 0.4355                 0.7008
 IR Inten    --      2.1948                 2.7628                 4.5022

                     13                     14                     15
                      A                      A                      A
 Frequencies --    570.7151               723.3684               753.2480
 Red. masses --      2.7883                 2.8635                 3.0375
 Frc consts  --      0.5351                 0.8828                 1.0154
 IR Inten    --      0.4580                 2.2665                 5.0404

                     16                     17                     18
                      A                      A                      A
 Frequencies --    790.3499               843.9543               916.5308
 Red. masses --      2.8923                 2.5976                 1.7968
 Frc consts  --      1.0645                 1.0901                 0.8893
 IR Inten    --      5.9130                 6.0142                12.0723

                     19                     20                     21
                      A                      A                      A
 Frequencies --    926.3499              1005.6004              1018.2124
 Red. masses --      1.8252                 1.4734                 1.9302
 Frc consts  --      0.9228                 0.8778                 1.1791
 IR Inten    --     11.9402                26.9098                16.4175

                     22                     23                     24
                      A                      A                      A
 Frequencies --   1025.2946              1076.1947              1121.6605
 Red. masses --      2.1076                 2.3710                 2.5228
 Frc consts  --      1.3054                 1.6180                 1.8700
 IR Inten    --     26.8713                11.8013                13.8115

                     25                     26                     27
                      A                      A                      A
 Frequencies --   1127.4098              1141.4309              1164.8419
 Red. masses --      2.2487                 1.7763                 1.8952
 Frc consts  --      1.6840                 1.3635                 1.5151
 IR Inten    --      2.8803                 8.3345                12.8438

                     28                     29                     30
                      A                      A                      A
 Frequencies --   1186.6948              1203.2449              1239.8147
 Red. masses --      1.4611                 2.0653                 1.7207
 Frc consts  --      1.2123                 1.7618                 1.5584
 IR Inten    --      4.3649                20.6959                11.6470

                     31                     32                     33
                      A                      A                      A
 Frequencies --   1327.7069              1349.0332              1405.1124
 Red. masses --      1.8464                 1.3528                 1.2136
 Frc consts  --      1.9177                 1.4506                 1.4117
 IR Inten    --      7.6621                14.7408                 1.9415

                     34                     35                     36
                      A                      A                      A
 Frequencies --   1409.6898              1426.6628              1473.5821
 Red. masses --      1.2682                 1.1181                 1.2351
 Frc consts  --      1.4848                 1.3408                 1.5802
 IR Inten    --      4.5095                 8.6061                 4.3418

                     37                     38                     39
                      A                      A                      A
 Frequencies --   1489.8457              1493.9333              1495.8926
 Red. masses --      1.0983                 1.0477                 1.0469
 Frc consts  --      1.4363                 1.3776                 1.3803
 IR Inten    --      4.8091                 7.4184                 7.3111

                     40                     41                     42
                      A                      A                      A
 Frequencies --   1522.5658              1896.1126              3020.6294
 Red. masses --      2.5790                12.7803                 1.0813
 Frc consts  --      3.5225                27.0719                 5.8128
 IR Inten    --     19.2981               247.8501                 6.9352

                     43                     44                     45
                      A                      A                      A
 Frequencies --   3037.7559              3038.5641              3053.9966
 Red. masses --      1.0360                 1.0346                 1.0598
 Frc consts  --      5.6329                 5.6280                 5.8239
 IR Inten    --     16.7517                18.0147                 4.3249

                     46                     47                     48
                      A                      A                      A
 Frequencies --   3091.9863              3102.0431              3108.6017
 Red. masses --      1.0870                 1.1005                 1.1023
 Frc consts  --      6.1228                 6.2395                 6.2762
 IR Inten    --     16.9726                15.2134                15.7990

                     49                     50                     51
                      A                      A                      A
 Frequencies --   3110.7545              3115.0117              3127.4101
 Red. masses --      1.1042                 1.1014                 1.1008
 Frc consts  --      6.2954                 6.2968                 6.3434
 IR Inten    --      7.8406                14.8650                25.3776

 - Thermochemistry -
 -------------------
 Temperature   298.150 Kelvin.  Pressure   1.00000 Atm.
 Atom     1 has atomic number  6 and mass  12.00000

 Molecular mass:   126.06808 amu.
 Principal axes and moments of inertia in atomic units:
                           1         2         3
     Eigenvalues --   646.699111516.156261786.67090
           X            0.99843   0.04889   0.02738
           Y           -0.04815   0.99848  -0.02679
           Z           -0.02865   0.02543   0.99927
 This molecule is an asymmetric top.
 Rotational symmetry number  1.
 Warning -- assumption of classical behavior for rotation
           may cause significant error
 Rotational temperatures (Kelvin)      0.13393     0.05713     0.04848
 Rotational constants (GHZ):           2.79070     1.19034     1.01011
 Zero-point vibrational energy     409336.1 (Joules/Mol)
                                   97.83369 (Kcal/Mol)
 Warning -- explicit consideration of  13 degrees of freedom as
           vibrations may cause significant error
 Vibrational temperatures:     81.93   190.69   252.77   258.00   278.55
          (Kelvin)            293.12   394.20   546.63   611.38   654.22
                              692.05   787.70   821.13  1040.76  1083.75
                             1137.14  1214.26  1318.68  1332.81  1446.83
                             1464.98  1475.17  1548.40  1613.82  1622.09
                             1642.26  1675.95  1707.39  1731.20  1783.81
                             1910.27  1940.96  2021.64  2028.23  2052.65
                             2120.15  2143.55  2149.43  2152.25  2190.63
                             2728.08  4346.01  4370.65  4371.81  4394.01
                             4448.67  4463.14  4472.58  4475.68  4481.80
                             4499.64

 Zero-point correction=                           0.155908 (Hartree/Particle)
 Thermal correction to Energy=                    0.165266
 Thermal correction to Enthalpy=                  0.166210
 Thermal correction to Gibbs Free Energy=         0.121616
 Sum of electronic and zero-point Energies=           -423.023346
 Sum of electronic and thermal Energies=              -423.013988
 Sum of electronic and thermal Enthalpies=            -423.013043
 Sum of electronic and thermal Free Energies=         -423.057637

                     E (Thermal)             CV                S
                      KCal/Mol        Cal/Mol-Kelvin    Cal/Mol-Kelvin
 Total                  103.706             34.456             93.856
 Electronic               0.000              0.000              0.000
 Translational            0.889              2.981             40.409
 Rotational               0.889              2.981             28.951
 Vibrational            101.928             28.494             24.497
 Vibration     1          0.596              1.975              4.560
 Vibration     2          0.613              1.921              2.909
 Vibration     3          0.628              1.872              2.374
 Vibration     4          0.629              1.868              2.335
 Vibration     5          0.635              1.849              2.193
 Vibration     6          0.639              1.835              2.099
 Vibration     7          0.676              1.721              1.571
 Vibration     8          0.750              1.513              1.039
 Vibration     9          0.787              1.416              0.875
 Vibration    10          0.813              1.350              0.782
 Vibration    11          0.837              1.292              0.707
 Vibration    12          0.903              1.145              0.549
 Vibration    13          0.927              1.095              0.503

 Normal termination of Gaussian 09 at Tue Jan 28 02:41:39 2020.
