 Gaussian 09, Revision D.01,
 Gaussian 09:  ES64L-G09RevD.01 24-Apr-2013

 -----------------------------
 # b3lyp 6-31G(2df,p) opt Freq
 -----------------------------

 -----
 titel
 -----
 Symbolic Z-matrix:
 Charge =  0 Multiplicity = 1

 SCF Done:  E(RB3LYP) =  -423.078907742     A.U. after   14 cycles
 Optimization completed.
    -- Stationary point found.
 Normal termination of Gaussian 09 at Tue Jan 28 08:24:04 2020.

 ----------------------------------------------------------------------
 #N Geom=AllCheck Guess=TCheck SCRF=Check GenChk RB3LYP/6-31G(2df,p) Fr
 eq
 ----------------------------------------------------------------------

 Structure from the checkpoint file:  "/scratch/puck/g09_2c54c405-b9e2-49b7-95c5-900eb6924e13/Gau-81456.chk"
 -----
 titel
 -----
 Charge =  0 Multiplicity = 1

                         Standard orientation:
 ---------------------------------------------------------------------
 Center     Atomic      Atomic             Coordinates (Angstroms)
 Number     Number       Type             X           Y           Z
 ---------------------------------------------------------------------
      1          6           0        2.790565   -0.281312   -0.450517
      2          8           0        1.794633   -0.387184    0.548694
      3          6           0        0.541201    0.176022    0.215407
      4          6           0        0.600283    1.682172    0.071242
      5          6           0       -0.501186   -0.655189    0.919927
      6          6           0       -1.988560   -0.310848    0.607177
      7          8           0       -2.084408    0.802634   -0.293983
      8          6           0       -1.767668   -0.492479   -0.824733
      9          6           0       -0.267066   -0.836395   -0.588223
     10          1           0        3.121788    0.754165   -0.604094
     11          1           0        3.642935   -0.870718   -0.103927
     12          1           0        2.447362   -0.683653   -1.414364
     13          1           0        1.123768    2.094020    0.940878
     14          1           0        1.160693    1.965644   -0.825981
     15          1           0       -0.391478    2.116644    0.002204
     16          1           0       -0.208313   -1.332468    1.711195
     17          1           0       -2.843095   -0.512876    1.241771
     18          1           0       -2.402916   -0.874152   -1.615286
     19          1           0        0.222040   -1.672032   -1.071761
 ---------------------------------------------------------------------

 SCF Done:  E(RB3LYP) =  -423.078907743     A.U. after    1 cycles

 The electronic state is 1-A.
 Alpha  occ. eigenvalues --  -19.15547 -19.14161 -10.24898 -10.24232 -10.24196
 Alpha  occ. eigenvalues --  -10.22288 -10.19353 -10.19256 -10.16490  -1.08097
 Alpha  occ. eigenvalues --   -1.03645  -0.86134  -0.73256  -0.68988  -0.65581
 Alpha  occ. eigenvalues --   -0.65140  -0.55052  -0.54798  -0.53249  -0.48230
 Alpha  occ. eigenvalues --   -0.46799  -0.44821  -0.43496  -0.41996  -0.40206
 Alpha  occ. eigenvalues --   -0.38981  -0.38221  -0.36113  -0.34620  -0.33333
 Alpha  occ. eigenvalues --   -0.28183  -0.26317  -0.25660  -0.22886
 Alpha virt. eigenvalues --    0.05339   0.09227   0.09830   0.11489   0.12754
 Alpha virt. eigenvalues --    0.14141   0.14610   0.14727   0.15544   0.16311
 Alpha virt. eigenvalues --    0.17657   0.18849   0.20187   0.20346   0.20866

 Mulliken charges:
               1
     1  C   -0.244921
     2  O   -0.282680
     3  C    0.423983
     4  C   -0.485572
     5  C   -0.168497
     6  C    0.007402
     7  O   -0.245978
     8  C    0.002948
     9  C   -0.165487
    10  H    0.113266
    11  H    0.126484
    12  H    0.104577
    13  H    0.118293
    14  H    0.112914
    15  H    0.159295
    16  H    0.101961
    17  H    0.112770
    18  H    0.111622
    19  H    0.097620
 Sum of Mulliken charges =   0.00000

 Dipole moment (field-independent basis, Debye):
    X=              0.1861    Y=             -1.2825    Z=             -0.6878  Tot=              1.4671
 Quadrupole moment (field-independent basis, Debye-Ang):
   XX=            -50.7230   YY=            -53.6342   ZZ=            -51.7636
   XY=              3.8025   XZ=             -3.1249   YZ=              1.1513

  Exact polarizability:  89.595   2.116  67.420  -1.923   1.158  68.320
 Approx polarizability: 114.821  -0.776 101.983  -1.771   1.230 113.381

                      1                      2                      3
                      A                      A                      A
 Frequencies --    101.1910               133.3970               156.3022
 Red. masses --      2.0711                 1.5400                 1.5560
 Frc consts  --      0.0125                 0.0161                 0.0224
 IR Inten    --      2.2769                 0.8796                 0.4814

                      4                      5                      6
                      A                      A                      A
 Frequencies --    205.4950               259.0173               311.5647
 Red. masses --      1.4433                 3.0443                 3.4268
 Frc consts  --      0.0359                 0.1203                 0.1960
 IR Inten    --      2.2474                 6.4440                 2.9434

                      7                      8                      9
                      A                      A                      A
 Frequencies --    352.4466               412.2180               427.1527
 Red. masses --      4.5185                 3.9468                 3.3459
 Frc consts  --      0.3307                 0.3951                 0.3597
 IR Inten    --      2.3102                 3.5604                 1.8868

                     10                     11                     12
                      A                      A                      A
 Frequencies --    518.2215               610.3268               685.7160
 Red. masses --      2.7306                 3.0549                 5.7301
 Frc consts  --      0.4321                 0.6705                 1.5874
 IR Inten    --      0.6611                15.2132                 3.2179

                     13                     14                     15
                      A                      A                      A
 Frequencies --    754.7979               766.1738               783.0631
 Red. masses --      3.5433                 6.6911                 1.4989
 Frc consts  --      1.1894                 2.3142                 0.5415
 IR Inten    --      1.0845                 0.7325                11.2079

                     16                     17                     18
                      A                      A                      A
 Frequencies --    851.1853               885.8061               914.1929
 Red. masses --      1.3344                 3.2113                 2.5724
 Frc consts  --      0.5696                 1.4846                 1.2667
 IR Inten    --     42.6637                 5.4688                 7.4440

                     19                     20                     21
                      A                      A                      A
 Frequencies --    923.7994               939.8743               979.1702
 Red. masses --      2.0693                 1.9102                 2.3797
 Frc consts  --      1.0405                 0.9942                 1.3443
 IR Inten    --     11.6212                 0.1619                21.8573

                     22                     23                     24
                      A                      A                      A
 Frequencies --   1002.7510              1034.2141              1045.6218
 Red. masses --      3.6174                 1.6863                 1.2801
 Frc consts  --      2.1430                 1.0627                 0.8246
 IR Inten    --      9.8478                 0.4708                 0.5011

                     25                     26                     27
                      A                      A                      A
 Frequencies --   1089.3307              1114.0796              1160.9876
 Red. masses --      3.1330                 1.7636                 2.4462
 Frc consts  --      2.1904                 1.2897                 1.9427
 IR Inten    --     41.7378                11.0237               106.9495

                     28                     29                     30
                      A                      A                      A
 Frequencies --   1181.0695              1206.1964              1216.7008
 Red. masses --      1.3227                 1.4507                 1.4372
 Frc consts  --      1.0871                 1.2435                 1.2536
 IR Inten    --      9.8677                 4.9500                 2.0509

                     31                     32                     33
                      A                      A                      A
 Frequencies --   1231.7424              1254.9544              1272.4801
 Red. masses --      1.6189                 1.4465                 1.8886
 Frc consts  --      1.4471                 1.3422                 1.8017
 IR Inten    --     19.0557                 2.3060                44.8537

                     34                     35                     36
                      A                      A                      A
 Frequencies --   1347.7157              1403.2492              1421.7595
 Red. masses --      4.3851                 1.3680                 4.2054
 Frc consts  --      4.6927                 1.5872                 5.0085
 IR Inten    --     39.2538                 9.6041                26.2665

                     37                     38                     39
                      A                      A                      A
 Frequencies --   1472.3139              1485.4726              1489.7912
 Red. masses --      1.1246                 1.0678                 1.0602
 Frc consts  --      1.4363                 1.3882                 1.3864
 IR Inten    --      1.7188                 2.0360                 8.4278

                     40                     41                     42
                      A                      A                      A
 Frequencies --   1509.0418              1515.4219              2994.5380
 Red. masses --      1.0687                 1.0461                 1.0359
 Frc consts  --      1.4339                 1.4155                 5.4733
 IR Inten    --      7.9164                 3.5336                47.7482

                     43                     44                     45
                      A                      A                      A
 Frequencies --   3039.4257              3050.7833              3096.3850
 Red. masses --      1.0488                 1.0949                 1.1001
 Frc consts  --      5.7085                 6.0040                 6.2144
 IR Inten    --     14.4761                69.2193                18.9332

                     46                     47                     48
                      A                      A                      A
 Frequencies --   3114.8491              3179.2490              3193.3690
 Red. masses --      1.0985                 1.0865                 1.0977
 Frc consts  --      6.2793                 6.4706                 6.5952
 IR Inten    --     29.0428                 9.6960                26.2531

                     49                     50                     51
                      A                      A                      A
 Frequencies --   3197.6687              3204.7072              3208.5876
 Red. masses --      1.0915                 1.0932                 1.0973
 Frc consts  --      6.5755                 6.6150                 6.6556
 IR Inten    --     11.6067                 0.7239                 5.0297

 - Thermochemistry -
 -------------------
 Temperature   298.150 Kelvin.  Pressure   1.00000 Atm.
 Atom     1 has atomic number  6 and mass  12.00000

 Molecular mass:   126.06808 amu.
 Principal axes and moments of inertia in atomic units:
                           1         2         3
     Eigenvalues --   478.728301447.568201581.74833
           X            0.99966   0.01825  -0.01863
           Y           -0.01769   0.99940   0.02990
           Z            0.01916  -0.02956   0.99938
 This molecule is an asymmetric top.
 Rotational symmetry number  1.
 Warning -- assumption of classical behavior for rotation
           may cause significant error
 Rotational temperatures (Kelvin)      0.18092     0.05983     0.05476
 Rotational constants (GHZ):           3.76987     1.24674     1.14098
 Zero-point vibrational energy     410950.6 (Joules/Mol)
                                   98.21954 (Kcal/Mol)
 Warning -- explicit consideration of  11 degrees of freedom as
           vibrations may cause significant error
 Vibrational temperatures:    145.59   191.93   224.88   295.66   372.67
          (Kelvin)            448.27   507.09   593.09   614.58   745.60
                              878.12   986.59  1085.98  1102.35  1126.65
                             1224.66  1274.48  1315.32  1329.14  1352.27
                             1408.81  1442.73  1488.00  1504.41  1567.30
                             1602.91  1670.40  1699.29  1735.45  1750.56
                             1772.20  1805.60  1830.81  1939.06  2018.96
                             2045.59  2118.33  2137.26  2143.47  2171.17
                             2180.35  4308.47  4373.05  4389.39  4455.00
                             4481.57  4574.22  4594.54  4600.73  4610.85
                             4616.44

 Zero-point correction=                           0.156523 (Hartree/Particle)
 Thermal correction to Energy=                    0.165130
 Thermal correction to Enthalpy=                  0.166074
 Thermal correction to Gibbs Free Energy=         0.123550
 Sum of electronic and zero-point Energies=           -422.922385
 Sum of electronic and thermal Energies=              -422.913777
 Sum of electronic and thermal Enthalpies=            -422.912833
 Sum of electronic and thermal Free Energies=         -422.955358

                     E (Thermal)             CV                S
                      KCal/Mol        Cal/Mol-Kelvin    Cal/Mol-Kelvin
 Total                  103.621             33.140             89.500
 Electronic               0.000              0.000              0.000
 Translational            0.889              2.981             40.409
 Rotational               0.889              2.981             28.485
 Vibrational            101.843             27.178             20.607
 Vibration     1          0.604              1.948              3.431
 Vibration     2          0.613              1.920              2.896
 Vibration     3          0.620              1.896              2.594
 Vibration     4          0.640              1.832              2.083
 Vibration     5          0.668              1.748              1.668
 Vibration     6          0.700              1.652              1.354
 Vibration     7          0.729              1.570              1.155
 Vibration     8          0.776              1.444              0.919
 Vibration     9          0.789              1.411              0.868
 Vibration    10          0.873              1.210              0.614
 Vibration    11          0.969              1.010              0.432

 Optimization completed.
    -- Stationary point found.
 Normal termination of Gaussian 09 at Tue Jan 28 09:12:55 2020.
