 Gaussian 09, Revision D.01,
 Gaussian 09:  ES64L-G09RevD.01 24-Apr-2013

 -----------------------------
 # b3lyp 6-31G(2df,p) opt Freq
 -----------------------------

 -----
 titel
 -----
 Symbolic Z-matrix:
 Charge =  0 Multiplicity = 1

 SCF Done:  E(RB3LYP) =  -423.153588498     A.U. after   14 cycles
 SCF Done:  E(RB3LYP) =  -423.153588484     A.U. after    7 cycles
 SCF Done:  E(RB3LYP) =  -423.153588417     A.U. after    7 cycles
 SCF Done:  E(RB3LYP) =  -423.153588554     A.U. after    6 cycles
 Optimization completed.
    -- Stationary point found.
 Normal termination of Gaussian 09 at Tue Jan 28 08:25:33 2020.

 ----------------------------------------------------------------------
 #N Geom=AllCheck Guess=TCheck SCRF=Check GenChk RB3LYP/6-31G(2df,p) Fr
 eq
 ----------------------------------------------------------------------

 Structure from the checkpoint file:  "/scratch/puck/g09_2d693432-3138-495c-8c08-4b3df90dd873/Gau-14275.chk"
 -----
 titel
 -----
 Charge =  0 Multiplicity = 1

                         Standard orientation:
 ---------------------------------------------------------------------
 Center     Atomic      Atomic             Coordinates (Angstroms)
 Number     Number       Type             X           Y           Z
 ---------------------------------------------------------------------
      1          8           0       -2.447737   -1.488861   -0.065591
      2          6           0       -1.466170   -0.538748    0.317711
      3          6           0       -1.700429    0.842486   -0.302045
      4          6           0       -0.580076    1.802675    0.108235
      5          8           0        0.698840    1.300625   -0.246535
      6          6           0        0.986578    0.064274    0.398770
      7          6           0       -0.042937   -1.016368    0.004546
      8          6           0        2.349443   -0.330658    0.057202
      9          6           0        3.460432   -0.695638   -0.216183
     10          1           0       -2.395292   -1.595951   -1.021945
     11          1           0       -1.576607   -0.457403    1.407434
     12          1           0       -1.707718    0.751682   -1.396695
     13          1           0       -2.675030    1.235304    0.006119
     14          1           0       -0.675850    2.766215   -0.398788
     15          1           0       -0.624387    1.988622    1.195496
     16          1           0        0.929509    0.212405    1.492985
     17          1           0        0.056708   -1.206739   -1.071517
     18          1           0        0.171541   -1.950659    0.531452
     19          1           0        4.447258   -1.005722   -0.456951
 ---------------------------------------------------------------------

 SCF Done:  E(RB3LYP) =  -423.153588554     A.U. after    1 cycles

 The electronic state is 1-A.
 Alpha  occ. eigenvalues --  -19.14629 -19.13859 -10.26054 -10.23733 -10.23447
 Alpha  occ. eigenvalues --  -10.18835 -10.18595 -10.18323 -10.17808  -1.04274
 Alpha  occ. eigenvalues --   -1.02121  -0.80070  -0.78835  -0.73207  -0.65588
 Alpha  occ. eigenvalues --   -0.64593  -0.59076  -0.54061  -0.50898  -0.48919
 Alpha  occ. eigenvalues --   -0.46815  -0.46440  -0.45379  -0.44327  -0.40977
 Alpha  occ. eigenvalues --   -0.37210  -0.36827  -0.35918  -0.33704  -0.31297
 Alpha  occ. eigenvalues --   -0.28145  -0.27766  -0.26570  -0.25466
 Alpha virt. eigenvalues --    0.03444   0.05326   0.07343   0.09208   0.11063
 Alpha virt. eigenvalues --    0.12518   0.13319   0.14860   0.15991   0.16371
 Alpha virt. eigenvalues --    0.16939   0.17382   0.18172   0.21686   0.23505

 Mulliken charges:
               1
     1  O   -0.434517
     2  C    0.117183
     3  C   -0.223175
     4  C   -0.079484
     5  O   -0.253615
     6  C   -0.077764
     7  C   -0.226444
     8  C    0.298320
     9  C   -0.404436
    10  H    0.276895
    11  H    0.089794
    12  H    0.095569
    13  H    0.105448
    14  H    0.114187
    15  H    0.090732
    16  H    0.095529
    17  H    0.103043
    18  H    0.116125
    19  H    0.196609
 Sum of Mulliken charges =   0.00000

 Dipole moment (field-independent basis, Debye):
    X=             -0.3251    Y=              0.1177    Z=             -0.2982  Tot=              0.4566
 Quadrupole moment (field-independent basis, Debye-Ang):
   XX=            -53.7208   YY=            -54.3585   ZZ=            -50.8530
   XY=             -6.3701   XZ=              2.3445   YZ=              2.9975

  Exact polarizability: 100.214  -8.887  71.746  -2.736   2.293  62.079
 Approx polarizability: 137.128 -12.678 100.286  -9.106   3.473  99.218

                      1                      2                      3
                      A                      A                      A
 Frequencies --    105.0622               136.9358               166.4406
 Red. masses --      3.2540                 4.1517                 3.6960
 Frc consts  --      0.0212                 0.0459                 0.0603
 IR Inten    --      0.5159                 0.4926                 7.2231

                      4                      5                      6
                      A                      A                      A
 Frequencies --    248.0804               282.5607               334.4916
 Red. masses --      2.3206                 1.1223                 3.1060
 Frc consts  --      0.0841                 0.0528                 0.2048
 IR Inten    --      9.1782                61.7898                 0.2289

                      7                      8                      9
                      A                      A                      A
 Frequencies --    351.2676               401.0094               419.3422
 Red. masses --      4.3973                 4.8787                 5.2106
 Frc consts  --      0.3197                 0.4622                 0.5398
 IR Inten    --     32.4814                 0.6389                 0.3679

                     10                     11                     12
                      A                      A                      A
 Frequencies --    472.7473               518.1780               558.9696
 Red. masses --      2.0807                 4.1432                 3.4982
 Frc consts  --      0.2740                 0.6555                 0.6440
 IR Inten    --      4.1461                 0.4854                 0.6809

                     13                     14                     15
                      A                      A                      A
 Frequencies --    597.5494               623.0326               673.7296
 Red. masses --      2.6824                 1.2285                 1.2578
 Frc consts  --      0.5643                 0.2810                 0.3364
 IR Inten    --      4.6660                47.5647                33.2660

                     16                     17                     18
                      A                      A                      A
 Frequencies --    815.7466               858.2271               889.8172
 Red. masses --      1.9116                 2.5624                 2.6759
 Frc consts  --      0.7495                 1.1120                 1.2483
 IR Inten    --      3.6867                 4.7060                13.9038

                     19                     20                     21
                      A                      A                      A
 Frequencies --    955.6104               964.8858              1026.7372
 Red. masses --      2.2247                 1.7619                 3.6088
 Frc consts  --      1.1970                 0.9665                 2.2414
 IR Inten    --      3.0268                 3.3718                17.7629

                     22                     23                     24
                      A                      A                      A
 Frequencies --   1049.4209              1081.5988              1097.0264
 Red. masses --      2.4628                 1.9870                 4.1597
 Frc consts  --      1.5980                 1.3696                 2.9495
 IR Inten    --     59.4608                70.8826                56.8569

                     25                     26                     27
                      A                      A                      A
 Frequencies --   1122.4058              1152.4711              1186.4640
 Red. masses --      3.3368                 2.5278                 1.5443
 Frc consts  --      2.4767                 1.9781                 1.2808
 IR Inten    --     29.9099                70.8622                47.7186

                     28                     29                     30
                      A                      A                      A
 Frequencies --   1220.6547              1270.1129              1276.3953
 Red. masses --      1.3057                 1.3012                 1.2624
 Frc consts  --      1.1462                 1.2368                 1.2118
 IR Inten    --      3.7342                16.2929                 9.0741

                     31                     32                     33
                      A                      A                      A
 Frequencies --   1319.1815              1348.8109              1360.9854
 Red. masses --      1.3218                 1.2989                 1.2525
 Frc consts  --      1.3552                 1.3923                 1.3669
 IR Inten    --     26.5975                 8.2521                 6.9641

                     34                     35                     36
                      A                      A                      A
 Frequencies --   1380.1217              1385.7887              1405.3064
 Red. masses --      1.4077                 1.5896                 1.2814
 Frc consts  --      1.5798                 1.7985                 1.4910
 IR Inten    --      6.5578                38.9886                22.7676

                     37                     38                     39
                      A                      A                      A
 Frequencies --   1433.2999              1470.2573              1486.6201
 Red. masses --      1.2435                 1.0930                 1.0985
 Frc consts  --      1.5051                 1.3921                 1.4304
 IR Inten    --     45.1655                 0.6709                 5.5808

                     40                     41                     42
                      A                      A                      A
 Frequencies --   1499.1688              2245.8259              2931.6032
 Red. masses --      1.0956                 5.9055                 1.0799
 Frc consts  --      1.4508                17.5493                 5.4683
 IR Inten    --      1.4265                 1.3101                25.9251

                     43                     44                     45
                      A                      A                      A
 Frequencies --   2958.8025              3016.9785              3024.9689
 Red. masses --      1.0715                 1.0735                 1.0706
 Frc consts  --      5.5266                 5.7572                 5.7719
 IR Inten    --     55.4119                 4.1373                20.4735

                     46                     47                     48
                      A                      A                      A
 Frequencies --   3038.0870              3084.0283              3094.2689
 Red. masses --      1.0655                 1.0991                 1.0919
 Frc consts  --      5.7943                 6.1594                 6.1597
 IR Inten    --     39.4943                35.3391                33.4430

                     49                     50                     51
                      A                      A                      A
 Frequencies --   3098.5773              3504.1901              3798.9269
 Red. masses --      1.1008                 1.1635                 1.0658
 Frc consts  --      6.2271                 8.4178                 9.0627
 IR Inten    --     23.2033                65.7941                14.5337

 - Thermochemistry -
 -------------------
 Temperature   298.150 Kelvin.  Pressure   1.00000 Atm.
 Atom     1 has atomic number  8 and mass  15.99491

 Molecular mass:   126.06808 amu.
 Principal axes and moments of inertia in atomic units:
                           1         2         3
     Eigenvalues --   615.306111594.502172092.18056
           X            0.99959  -0.02844   0.00330
           Y            0.02838   0.99947   0.01583
           Z           -0.00374  -0.01573   0.99987
 This molecule is an asymmetric top.
 Rotational symmetry number  1.
 Warning -- assumption of classical behavior for rotation
           may cause significant error
 Rotational temperatures (Kelvin)      0.14077     0.05432     0.04140
 Rotational constants (GHZ):           2.93308     1.13185     0.86261
 Zero-point vibrational energy     417154.4 (Joules/Mol)
                                   99.70229 (Kcal/Mol)
 Warning -- explicit consideration of  13 degrees of freedom as
           vibrations may cause significant error
 Vibrational temperatures:    151.16   197.02   239.47   356.93   406.54
          (Kelvin)            481.26   505.40   576.96   603.34   680.18
                              745.54   804.23   859.74   896.40   969.35
                             1173.68  1234.80  1280.25  1374.91  1388.25
                             1477.24  1509.88  1556.18  1578.37  1614.89
                             1658.15  1707.05  1756.25  1827.41  1836.45
                             1898.01  1940.64  1958.15  1985.68  1993.84
                             2021.92  2062.20  2115.37  2138.91  2156.97
                             3231.24  4217.92  4257.05  4340.75  4352.25
                             4371.12  4437.22  4451.96  4458.16  5041.74
                             5465.80

 Zero-point correction=                           0.158886 (Hartree/Particle)
 Thermal correction to Energy=                    0.167637
 Thermal correction to Enthalpy=                  0.168581
 Thermal correction to Gibbs Free Energy=         0.125710
 Sum of electronic and zero-point Energies=           -422.994703
 Sum of electronic and thermal Energies=              -422.985951
 Sum of electronic and thermal Enthalpies=            -422.985007
 Sum of electronic and thermal Free Energies=         -423.027878

                     E (Thermal)             CV                S
                      KCal/Mol        Cal/Mol-Kelvin    Cal/Mol-Kelvin
 Total                  105.194             33.873             90.229
 Electronic               0.000              0.000              0.000
 Translational            0.889              2.981             40.409
 Rotational               0.889              2.981             29.108
 Vibrational            103.416             27.911             20.712
 Vibration     1          0.605              1.945              3.358
 Vibration     2          0.614              1.916              2.846
 Vibration     3          0.624              1.884              2.475
 Vibration     4          0.662              1.766              1.744
 Vibration     5          0.682              1.706              1.518
 Vibration     6          0.716              1.607              1.238
 Vibration     7          0.728              1.573              1.161
 Vibration     8          0.767              1.468              0.959
 Vibration     9          0.782              1.428              0.894
 Vibration    10          0.830              1.311              0.730
 Vibration    11          0.873              1.210              0.614
 Vibration    12          0.915              1.120              0.526
 Vibration    13          0.955              1.037              0.454

 Optimization completed.
    -- Stationary point found.
 Normal termination of Gaussian 09 at Tue Jan 28 09:05:54 2020.
