 Gaussian 09, Revision D.01,
 Gaussian 09:  ES64L-G09RevD.01 24-Apr-2013

 -----------------------------
 # b3lyp 6-31G(2df,p) opt Freq
 -----------------------------

 -----
 titel
 -----
 Symbolic Z-matrix:
 Charge =  0 Multiplicity = 1

 SCF Done:  E(RB3LYP) =  -423.200430138     A.U. after   13 cycles
 Optimization completed.
    -- Stationary point found.
 Normal termination of Gaussian 09 at Mon Jan 27 11:17:10 2020.

 ----------------------------------------------------------------------
 #N Geom=AllCheck Guess=TCheck SCRF=Check GenChk RB3LYP/6-31G(2df,p) Fr
 eq
 ----------------------------------------------------------------------

 Structure from the checkpoint file:  "/scratch/puck/g09_8d5b876f-2d55-400f-bf3b-743ddd3da844/Gau-70030.chk"
 -----
 titel
 -----
 Charge =  0 Multiplicity = 1

                         Standard orientation:
 ---------------------------------------------------------------------
 Center     Atomic      Atomic             Coordinates (Angstroms)
 Number     Number       Type             X           Y           Z
 ---------------------------------------------------------------------
      1          6           0       -0.192185    1.507989   -0.500241
      2          6           0       -0.850495    0.230083   -1.053279
      3          6           0       -1.861441   -0.034554    0.085969
      4          6           0       -0.726007   -0.276294    1.088919
      5          8           0       -0.129689   -1.439650    0.479261
      6          6           0        0.216194   -0.919066   -0.799311
      7          8           0        1.532723   -0.408681   -0.715552
      8          6           0        1.663254    0.299549    0.530165
      9          6           0        0.290933    0.915679    0.853629
     10          1           0        0.638049    1.876041   -1.105118
     11          1           0       -0.924803    2.311361   -0.387929
     12          1           0       -1.229088    0.273512   -2.074336
     13          1           0       -2.500521    0.828430    0.289726
     14          1           0       -2.472180   -0.931354   -0.029694
     15          1           0       -0.966497   -0.506656    2.126132
     16          1           0        0.222703   -1.717719   -1.541748
     17          1           0        2.004592   -0.381591    1.318107
     18          1           0        2.422156    1.072559    0.375934
     19          1           0        0.339802    1.621747    1.684150
 ---------------------------------------------------------------------

 SCF Done:  E(RB3LYP) =  -423.200430138     A.U. after    1 cycles

 The electronic state is 1-A.
 Alpha  occ. eigenvalues --  -19.13769 -19.13410 -10.27081 -10.23488 -10.22418
 Alpha  occ. eigenvalues --  -10.19238 -10.19109 -10.18249 -10.18216  -1.07559
 Alpha  occ. eigenvalues --   -0.99569  -0.83818  -0.76067  -0.71132  -0.64628
 Alpha  occ. eigenvalues --   -0.63083  -0.58259  -0.54044  -0.51098  -0.49697
 Alpha  occ. eigenvalues --   -0.48366  -0.44477  -0.43408  -0.40364  -0.38739
 Alpha  occ. eigenvalues --   -0.37631  -0.36969  -0.35284  -0.34241  -0.32950
 Alpha  occ. eigenvalues --   -0.31686  -0.31035  -0.25866  -0.24230
 Alpha virt. eigenvalues --    0.08697   0.11405   0.11702   0.13029   0.13262
 Alpha virt. eigenvalues --    0.14587   0.14948   0.16020   0.16621   0.17081
 Alpha virt. eigenvalues --    0.17367   0.19096   0.19219   0.20773   0.21638

 Mulliken charges:
               1
     1  C   -0.205022
     2  C   -0.090098
     3  C   -0.211480
     4  C    0.082336
     5  O   -0.265465
     6  C    0.201464
     7  O   -0.264097
     8  C   -0.076790
     9  C   -0.084256
    10  H    0.108510
    11  H    0.092338
    12  H    0.066728
    13  H    0.094267
    14  H    0.105418
    15  H    0.076446
    16  H    0.089495
    17  H    0.105182
    18  H    0.103148
    19  H    0.071874
 Sum of Mulliken charges =   0.00000

 Dipole moment (field-independent basis, Debye):
    X=             -1.2741    Y=              1.6876    Z=              0.5064  Tot=              2.1743
 Quadrupole moment (field-independent basis, Debye-Ang):
   XX=            -53.7574   YY=            -54.5272   ZZ=            -51.0531
   XY=              1.3309   XZ=              1.9407   YZ=              1.9193

  Exact polarizability:  75.730   1.541  69.557   1.656   1.519  70.469
 Approx polarizability: 106.978   0.975 105.581  -0.777   2.040 107.701

                      1                      2                      3
                      A                      A                      A
 Frequencies --    327.0560               350.9415               424.9387
 Red. masses --      2.4936                 3.1393                 3.0094
 Frc consts  --      0.1572                 0.2278                 0.3202
 IR Inten    --      2.1000                 4.7634                 1.0121

                      4                      5                      6
                      A                      A                      A
 Frequencies --    515.2993               535.0428               555.2049
 Red. masses --      1.8347                 4.4084                 5.3879
 Frc consts  --      0.2870                 0.7436                 0.9785
 IR Inten    --      0.4325                 2.5388                 6.9153

                      7                      8                      9
                      A                      A                      A
 Frequencies --    643.1069               663.9620               778.3501
 Red. masses --      5.4408                 5.6560                 3.8265
 Frc consts  --      1.3258                 1.4691                 1.3659
 IR Inten    --      0.4608                 2.3713                 0.3437

                     10                     11                     12
                      A                      A                      A
 Frequencies --    787.1141               848.3055               872.6482
 Red. masses --      3.1467                 3.1096                 2.9489
 Frc consts  --      1.1486                 1.3184                 1.3231
 IR Inten    --      1.3874                 1.2212                12.1261

                     13                     14                     15
                      A                      A                      A
 Frequencies --    896.3816               908.5521               927.1261
 Red. masses --      2.1691                 2.3054                 2.2018
 Frc consts  --      1.0269                 1.1212                 1.1151
 IR Inten    --      1.5909                 5.1436                19.5855

                     16                     17                     18
                      A                      A                      A
 Frequencies --    936.7705               954.6373               962.1633
 Red. masses --      2.6818                 3.0818                 2.1633
 Frc consts  --      1.3866                 1.6548                 1.1799
 IR Inten    --     30.6746                 8.3756                 4.1821

                     19                     20                     21
                      A                      A                      A
 Frequencies --    992.8061               999.6842              1023.7625
 Red. masses --      3.3266                 1.8286                 1.5630
 Frc consts  --      1.9319                 1.0767                 0.9652
 IR Inten    --     51.7460                41.7464                 0.1077

                     22                     23                     24
                      A                      A                      A
 Frequencies --   1052.8655              1074.2013              1107.3402
 Red. masses --      1.9521                 2.2679                 1.9109
 Frc consts  --      1.2750                 1.5419                 1.3806
 IR Inten    --     62.7858                 9.4921                17.7319

                     25                     26                     27
                      A                      A                      A
 Frequencies --   1132.5872              1175.2540              1198.8302
 Red. masses --      1.4321                 1.4163                 1.5327
 Frc consts  --      1.0823                 1.1525                 1.2979
 IR Inten    --     26.9004                10.9322                 2.9905

                     28                     29                     30
                      A                      A                      A
 Frequencies --   1205.7765              1236.3444              1265.4938
 Red. masses --      2.1110                 1.2425                 1.2874
 Frc consts  --      1.8083                 1.1190                 1.2147
 IR Inten    --     11.1211                 3.1935                 3.5666

                     31                     32                     33
                      A                      A                      A
 Frequencies --   1280.3100              1298.3648              1305.4896
 Red. masses --      1.3836                 1.4723                 1.6369
 Frc consts  --      1.3363                 1.4623                 1.6437
 IR Inten    --      2.9240                 2.7119                 3.2321

                     34                     35                     36
                      A                      A                      A
 Frequencies --   1320.3414              1322.5643              1346.8662
 Red. masses --      1.3785                 1.6338                 1.4197
 Frc consts  --      1.4159                 1.6837                 1.5174
 IR Inten    --      2.5050                 6.1396                 6.4481

                     37                     38                     39
                      A                      A                      A
 Frequencies --   1363.0340              1397.8007              1489.6926
 Red. masses --      1.3043                 1.3451                 1.1040
 Frc consts  --      1.4277                 1.5485                 1.4435
 IR Inten    --      6.3381                 7.6645                 1.7103

                     40                     41                     42
                      A                      A                      A
 Frequencies --   1509.5957              1516.1916              3032.6597
 Red. masses --      1.0954                 1.0967                 1.0598
 Frc consts  --      1.4708                 1.4854                 5.7430
 IR Inten    --      2.8479                 3.8552                59.3644

                     43                     44                     45
                      A                      A                      A
 Frequencies --   3063.0964              3070.5083              3083.5604
 Red. masses --      1.0624                 1.0600                 1.1056
 Frc consts  --      5.8732                 5.8882                 6.1938
 IR Inten    --     16.3919                35.5427                23.4817

                     46                     47                     48
                      A                      A                      A
 Frequencies --   3098.4958              3109.2535              3119.4862
 Red. masses --      1.0878                 1.0908                 1.1004
 Frc consts  --      6.1533                 6.2130                 6.3090
 IR Inten    --     37.4553                22.3097                26.6134

                     49                     50                     51
                      A                      A                      A
 Frequencies --   3121.8775              3128.8124              3131.5002
 Red. masses --      1.0920                 1.1030                 1.0949
 Frc consts  --      6.2704                 6.3617                 6.3261
 IR Inten    --     58.6691                29.3998                17.5671

 - Thermochemistry -
 -------------------
 Temperature   298.150 Kelvin.  Pressure   1.00000 Atm.
 Atom     1 has atomic number  6 and mass  12.00000

 Molecular mass:   126.06808 amu.
 Principal axes and moments of inertia in atomic units:
                           1         2         3
     Eigenvalues --   654.12812 841.70319 927.27478
           X            0.99881   0.02304   0.04305
           Y           -0.02485   0.99881   0.04186
           Z           -0.04203  -0.04288   0.99820
 This molecule is an asymmetric top.
 Rotational symmetry number  1.
 Warning -- assumption of classical behavior for rotation
           may cause significant error
 Rotational temperatures (Kelvin)      0.13241     0.10290     0.09341
 Rotational constants (GHZ):           2.75900     2.14415     1.94629
 Zero-point vibrational energy     433419.3 (Joules/Mol)
                                  103.58970 (Kcal/Mol)
 Warning -- explicit consideration of   6 degrees of freedom as
           vibrations may cause significant error
 Vibrational temperatures:    470.56   504.93   611.39   741.40   769.81
          (Kelvin)            798.82   925.29   955.29  1119.87  1132.48
                             1220.52  1255.54  1289.69  1307.20  1333.93
                             1347.80  1373.51  1384.34  1428.42  1438.32
                             1472.96  1514.84  1545.53  1593.21  1629.54
                             1690.93  1724.85  1734.84  1778.82  1820.76
                             1842.08  1868.06  1878.31  1899.67  1902.87
                             1937.84  1961.10  2011.12  2143.33  2171.97
                             2181.46  4363.32  4407.11  4417.77  4436.55
                             4458.04  4473.52  4488.24  4491.68  4501.66
                             4505.52

 Zero-point correction=                           0.165081 (Hartree/Particle)
 Thermal correction to Energy=                    0.170779
 Thermal correction to Enthalpy=                  0.171723
 Thermal correction to Gibbs Free Energy=         0.135431
 Sum of electronic and zero-point Energies=           -423.035349
 Sum of electronic and thermal Energies=              -423.029651
 Sum of electronic and thermal Enthalpies=            -423.028707
 Sum of electronic and thermal Free Energies=         -423.064999

                     E (Thermal)             CV                S
                      KCal/Mol        Cal/Mol-Kelvin    Cal/Mol-Kelvin
 Total                  107.165             25.710             76.384
 Electronic               0.000              0.000              0.000
 Translational            0.889              2.981             40.409
 Rotational               0.889              2.981             27.726
 Vibrational            105.388             19.748              8.249
 Vibration     1          0.711              1.621              1.275
 Vibration     2          0.728              1.573              1.162
 Vibration     3          0.787              1.416              0.875
 Vibration     4          0.870              1.216              0.621
 Vibration     5          0.890              1.173              0.576
 Vibration     6          0.911              1.128              0.533

 Optimization completed.
    -- Stationary point found.
 Normal termination of Gaussian 09 at Mon Jan 27 12:14:18 2020.
