 Gaussian 09, Revision D.01,
 Gaussian 09:  ES64L-G09RevD.01 24-Apr-2013

 -----------------------------
 # b3lyp 6-31G(2df,p) opt Freq
 -----------------------------

 -----
 titel
 -----
 Symbolic Z-matrix:
 Charge =  0 Multiplicity = 1

 SCF Done:  E(RB3LYP) =  -423.119522654     A.U. after   13 cycles
 Optimization completed.
    -- Stationary point found.
 Normal termination of Gaussian 09 at Mon Jan 27 17:25:44 2020.

 ----------------------------------------------------------------------
 #N Geom=AllCheck Guess=TCheck SCRF=Check GenChk RB3LYP/6-31G(2df,p) Fr
 eq
 ----------------------------------------------------------------------

 Structure from the checkpoint file:  "/scratch/puck/g09_57ca36b7-5357-4857-9e99-c672e6a708f9/Gau-39350.chk"
 -----
 titel
 -----
 Charge =  0 Multiplicity = 1

                         Standard orientation:
 ---------------------------------------------------------------------
 Center     Atomic      Atomic             Coordinates (Angstroms)
 Number     Number       Type             X           Y           Z
 ---------------------------------------------------------------------
      1          6           0       -1.994332   -1.438855   -0.487399
      2          6           0       -1.377952   -0.164664    0.008562
      3          6           0       -1.045172    0.120356    1.462056
      4          6           0        0.040753    0.196745    0.426425
      5          8           0       -0.008637    1.466156   -0.231897
      6          6           0       -1.329923    1.156545   -0.754381
      7          6           0        1.323904   -0.535141    0.439970
      8          6           0        2.584003    0.138651    0.093901
      9          8           0        1.958789   -0.757203   -0.824877
     10          1           0       -3.088192   -1.405381   -0.414329
     11          1           0       -1.732250   -1.626510   -1.534106
     12          1           0       -1.654542   -2.297307    0.100426
     13          1           0       -1.370504    1.036283    1.948984
     14          1           0       -1.033041   -0.760542    2.098003
     15          1           0       -2.066788    1.926881   -0.497380
     16          1           0       -1.289418    1.025594   -1.841965
     17          1           0        1.356678   -1.389774    1.115834
     18          1           0        2.552045    1.187709   -0.190387
     19          1           0        3.517123   -0.210408    0.534313
 ---------------------------------------------------------------------

 SCF Done:  E(RB3LYP) =  -423.119522654     A.U. after    1 cycles

 The electronic state is 1-A.
 Alpha  occ. eigenvalues --  -19.14673 -19.13866 -10.24324 -10.24117 -10.23354
 Alpha  occ. eigenvalues --  -10.23082 -10.20477 -10.19170 -10.18686  -1.07070
 Alpha  occ. eigenvalues --   -1.04921  -0.84238  -0.73974  -0.70104  -0.66502
 Alpha  occ. eigenvalues --   -0.64365  -0.59282  -0.53283  -0.50258  -0.49113
 Alpha  occ. eigenvalues --   -0.47047  -0.45945  -0.43549  -0.41004  -0.40793
 Alpha  occ. eigenvalues --   -0.39473  -0.39042  -0.38262  -0.33760  -0.32438
 Alpha  occ. eigenvalues --   -0.31112  -0.27174  -0.26043  -0.23126
 Alpha virt. eigenvalues --    0.06403   0.08911   0.09979   0.11478   0.12887
 Alpha virt. eigenvalues --    0.13202   0.13582   0.14599   0.15116   0.15958
 Alpha virt. eigenvalues --    0.16530   0.17971   0.18639   0.19286   0.21106

 Mulliken charges:
               1
     1  C   -0.490635
     2  C    0.198693
     3  C   -0.397196
     4  C    0.455153
     5  O   -0.326816
     6  C   -0.127641
     7  C   -0.060774
     8  C   -0.173797
     9  O   -0.236972
    10  H    0.123213
    11  H    0.130015
    12  H    0.122467
    13  H    0.113600
    14  H    0.114455
    15  H    0.102293
    16  H    0.112557
    17  H    0.094610
    18  H    0.134733
    19  H    0.112043
 Sum of Mulliken charges =   0.00000

 Dipole moment (field-independent basis, Debye):
    X=             -1.2723    Y=             -0.6082    Z=              1.3916  Tot=              1.9813
 Quadrupole moment (field-independent basis, Debye-Ang):
   XX=            -49.6658   YY=            -54.4325   ZZ=            -53.0344
   XY=              0.6545   XZ=              3.9274   YZ=             -2.2715

  Exact polarizability:  89.411   1.411  70.354   1.474  -2.812  69.971
 Approx polarizability: 119.486   3.644 102.953  -0.205  -2.824 108.135

                      1                      2                      3
                      A                      A                      A
 Frequencies --     70.0472               131.0909               161.6872
 Red. masses --      3.9463                 3.1247                 2.4441
 Frc consts  --      0.0114                 0.0316                 0.0376
 IR Inten    --      2.6227                 3.6536                 0.1972

                      4                      5                      6
                      A                      A                      A
 Frequencies --    188.5525               259.4837               304.2231
 Red. masses --      1.1844                 3.2699                 3.0650
 Frc consts  --      0.0248                 0.1297                 0.1671
 IR Inten    --      0.2681                 3.1873                 2.1002

                      7                      8                      9
                      A                      A                      A
 Frequencies --    357.8331               407.6439               459.9855
 Red. masses --      2.4721                 2.6639                 2.8007
 Frc consts  --      0.1865                 0.2608                 0.3491
 IR Inten    --      0.0573                 0.5435                 1.5069

                     10                     11                     12
                      A                      A                      A
 Frequencies --    560.4449               604.5012               702.4118
 Red. masses --      3.3276                 3.5637                 2.7284
 Frc consts  --      0.6158                 0.7673                 0.7931
 IR Inten    --     13.9378                 4.4070                 7.1166

                     13                     14                     15
                      A                      A                      A
 Frequencies --    784.6202               844.8762               861.9780
 Red. masses --      3.6285                 6.2676                 4.1439
 Frc consts  --      1.3161                 2.6360                 1.8141
 IR Inten    --      2.8148                21.5869                10.5512

                     16                     17                     18
                      A                      A                      A
 Frequencies --    902.0422               924.6876               956.8022
 Red. masses --      2.2750                 2.0829                 1.4097
 Frc consts  --      1.0907                 1.0493                 0.7604
 IR Inten    --     23.6841                33.3839                 2.7079

                     19                     20                     21
                      A                      A                      A
 Frequencies --    980.5669               994.7924               999.5240
 Red. masses --      2.9351                 1.8589                 1.9395
 Frc consts  --      1.6627                 1.0839                 1.1417
 IR Inten    --     24.1621                49.1538                 2.8069

                     22                     23                     24
                      A                      A                      A
 Frequencies --   1034.0268              1055.5090              1096.0303
 Red. masses --      1.6001                 1.3552                 1.2040
 Frc consts  --      1.0080                 0.8895                 0.8522
 IR Inten    --      0.3333                 2.7616                 1.1808

                     25                     26                     27
                      A                      A                      A
 Frequencies --   1113.8827              1153.2680              1162.1128
 Red. masses --      1.7882                 1.6301                 1.4034
 Frc consts  --      1.3072                 1.2774                 1.1166
 IR Inten    --      6.6823                 8.8362                 0.9875

                     28                     29                     30
                      A                      A                      A
 Frequencies --   1165.4213              1169.3574              1249.3640
 Red. masses --      1.3663                 1.7047                 3.2557
 Frc consts  --      1.0933                 1.3734                 2.9941
 IR Inten    --      1.4510                 8.2457                 7.8912

                     31                     32                     33
                      A                      A                      A
 Frequencies --   1278.0423              1289.1030              1340.8168
 Red. masses --      1.6716                 2.1735                 1.7845
 Frc consts  --      1.6086                 2.1281                 1.8902
 IR Inten    --      5.0557                13.1988                 7.6356

                     34                     35                     36
                      A                      A                      A
 Frequencies --   1384.8144              1420.9415              1447.3529
 Red. masses --      1.9101                 1.4082                 1.3539
 Frc consts  --      2.1582                 1.6752                 1.6711
 IR Inten    --      1.6748                 3.7970                 7.7308

                     37                     38                     39
                      A                      A                      A
 Frequencies --   1485.7436              1493.5527              1500.0902
 Red. masses --      1.0762                 1.2715                 1.1702
 Frc consts  --      1.3996                 1.6711                 1.5515
 IR Inten    --      2.4896                 4.3829                 4.1258

                     40                     41                     42
                      A                      A                      A
 Frequencies --   1517.2276              1528.8284              3020.0439
 Red. masses --      1.1644                 1.9191                 1.0510
 Frc consts  --      1.5793                 2.6428                 5.6479
 IR Inten    --      0.8281                 2.0099                54.8246

                     43                     44                     45
                      A                      A                      A
 Frequencies --   3025.2785              3072.1662              3084.2724
 Red. masses --      1.0404                 1.1114                 1.0990
 Frc consts  --      5.6103                 6.1804                 6.1595
 IR Inten    --     53.1366                30.7172                24.5116

                     46                     47                     48
                      A                      A                      A
 Frequencies --   3089.3338              3102.4696              3106.7799
 Red. masses --      1.0513                 1.0993                 1.0575
 Frc consts  --      5.9118                 6.2341                 6.0140
 IR Inten    --     29.7396                12.0639                 9.6044

                     49                     50                     51
                      A                      A                      A
 Frequencies --   3112.6882              3187.1919              3199.0554
 Red. masses --      1.0856                 1.1183                 1.1161
 Frc consts  --      6.1971                 6.6931                 6.7296
 IR Inten    --     27.2274                15.6700                 9.5024

 - Thermochemistry -
 -------------------
 Temperature   298.150 Kelvin.  Pressure   1.00000 Atm.
 Atom     1 has atomic number  6 and mass  12.00000

 Molecular mass:   126.06808 amu.
 Principal axes and moments of inertia in atomic units:
                           1         2         3
     Eigenvalues --   629.826721358.032931505.14718
           X            0.99941   0.02765   0.02025
           Y           -0.02697   0.99909  -0.03310
           Z           -0.02115   0.03253   0.99925
 This molecule is an asymmetric top.
 Rotational symmetry number  1.
 Warning -- assumption of classical behavior for rotation
           may cause significant error
 Rotational temperatures (Kelvin)      0.13752     0.06378     0.05755
 Rotational constants (GHZ):           2.86546     1.32894     1.19905
 Zero-point vibrational energy     414760.6 (Joules/Mol)
                                   99.13017 (Kcal/Mol)
 Warning -- explicit consideration of  11 degrees of freedom as
           vibrations may cause significant error
 Vibrational temperatures:    100.78   188.61   232.63   271.28   373.34
          (Kelvin)            437.71   514.84   586.51   661.82   806.35
                              869.74  1010.61  1128.89  1215.59  1240.19
                             1297.84  1330.42  1376.62  1410.82  1431.28
                             1438.09  1487.73  1518.64  1576.94  1602.63
                             1659.29  1672.02  1676.78  1682.44  1797.55
                             1838.82  1854.73  1929.13  1992.44  2044.42
                             2082.42  2137.65  2148.89  2158.29  2182.95
                             2199.64  4345.16  4352.70  4420.16  4437.57
                             4444.86  4463.76  4469.96  4478.46  4585.65
                             4602.72

 Zero-point correction=                           0.157974 (Hartree/Particle)
 Thermal correction to Energy=                    0.166483
 Thermal correction to Enthalpy=                  0.167427
 Thermal correction to Gibbs Free Energy=         0.124672
 Sum of electronic and zero-point Energies=           -422.961549
 Sum of electronic and thermal Energies=              -422.953040
 Sum of electronic and thermal Enthalpies=            -422.952096
 Sum of electronic and thermal Free Energies=         -422.994850

                     E (Thermal)             CV                S
                      KCal/Mol        Cal/Mol-Kelvin    Cal/Mol-Kelvin
 Total                  104.469             32.109             89.985
 Electronic               0.000              0.000              0.000
 Translational            0.889              2.981             40.409
 Rotational               0.889              2.981             28.645
 Vibrational            102.692             26.147             20.932
 Vibration     1          0.598              1.968              4.152
 Vibration     2          0.612              1.922              2.930
 Vibration     3          0.622              1.889              2.530
 Vibration     4          0.633              1.856              2.242
 Vibration     5          0.668              1.747              1.665
 Vibration     6          0.695              1.666              1.394
 Vibration     7          0.733              1.559              1.132
 Vibration     8          0.772              1.454              0.935
 Vibration     9          0.818              1.339              0.766
 Vibration    10          0.916              1.117              0.523
 Vibration    11          0.963              1.022              0.442

 Normal termination of Gaussian 09 at Mon Jan 27 18:29:08 2020.
