 Gaussian 09, Revision D.01,
 Gaussian 09:  ES64L-G09RevD.01 24-Apr-2013

 -----------------------------
 # b3lyp 6-31G(2df,p) opt Freq
 -----------------------------

 -----
 titel
 -----
 Symbolic Z-matrix:
 Charge =  0 Multiplicity = 1

 SCF Done:  E(RB3LYP) =  -423.151883228     A.U. after   14 cycles
 Optimization completed.
    -- Stationary point found.
 Normal termination of Gaussian 09 at Tue Jan 28 14:24:28 2020.

 ----------------------------------------------------------------------
 #N Geom=AllCheck Guess=TCheck SCRF=Check GenChk RB3LYP/6-31G(2df,p) Fr
 eq
 ----------------------------------------------------------------------

 Structure from the checkpoint file:  "/scratch/puck/g09_86a80b84-a6b0-4b77-b317-7a4e34c2f3ea/Gau-164027.chk"
 -----
 titel
 -----
 Charge =  0 Multiplicity = 1

                         Standard orientation:
 ---------------------------------------------------------------------
 Center     Atomic      Atomic             Coordinates (Angstroms)
 Number     Number       Type             X           Y           Z
 ---------------------------------------------------------------------
      1          6           0       -4.198158    0.983212    0.173347
      2          8           0       -3.346752   -0.074345   -0.199920
      3          6           0       -1.997948    0.166011    0.123566
      4          6           0       -1.189656   -1.053083   -0.334455
      5          6           0        0.233292   -0.916903   -0.051778
      6          6           0        1.402864   -0.790481    0.206017
      7          6           0        2.821256   -0.598532    0.471195
      8          6           0        3.432921    0.494161   -0.408572
      9          8           0        4.256535    1.277779   -0.022754
     10          1           0       -4.177324    1.160365    1.260246
     11          1           0       -3.927003    1.923518   -0.332061
     12          1           0       -5.213079    0.704489   -0.119695
     13          1           0       -1.627302    1.075018   -0.377703
     14          1           0       -1.872102    0.316559    1.208129
     15          1           0       -1.593030   -1.944637    0.160560
     16          1           0       -1.353611   -1.195576   -1.409334
     17          1           0        3.023458   -0.347262    1.517562
     18          1           0        3.376070   -1.524482    0.253086
     19          1           0        3.058241    0.498222   -1.455321
 ---------------------------------------------------------------------

 SCF Done:  E(RB3LYP) =  -423.151883228     A.U. after    2 cycles

 The electronic state is 1-A.
 Alpha  occ. eigenvalues --  -19.14845 -19.14600 -10.28166 -10.23703 -10.22872
 Alpha  occ. eigenvalues --  -10.22156 -10.21048 -10.18513 -10.18248  -1.05638
 Alpha  occ. eigenvalues --   -1.04007  -0.81080  -0.78770  -0.71906  -0.67679
 Alpha  occ. eigenvalues --   -0.62135  -0.59228  -0.51764  -0.49464  -0.49221
 Alpha  occ. eigenvalues --   -0.47346  -0.46323  -0.44771  -0.43567  -0.43467
 Alpha  occ. eigenvalues --   -0.41987  -0.38426  -0.37749  -0.37431  -0.32537
 Alpha  occ. eigenvalues --   -0.28039  -0.26331  -0.26067  -0.24825
 Alpha virt. eigenvalues --   -0.02861   0.04563   0.05026   0.08678   0.11397
 Alpha virt. eigenvalues --    0.11856   0.13259   0.14005   0.14254   0.15398
 Alpha virt. eigenvalues --    0.17041   0.17479   0.17796   0.20598   0.21071

 Mulliken charges:
               1
     1  C   -0.230506
     2  O   -0.227159
     3  C   -0.042781
     4  C   -0.353269
     5  C    0.050592
     6  C    0.056801
     7  C   -0.412961
     8  C    0.171516
     9  O   -0.230546
    10  H    0.106520
    11  H    0.106580
    12  H    0.129523
    13  H    0.097088
    14  H    0.097848
    15  H    0.140743
    16  H    0.139657
    17  H    0.153072
    18  H    0.154701
    19  H    0.092580
 Sum of Mulliken charges =   0.00000

 Dipole moment (field-independent basis, Debye):
    X=             -1.7331    Y=             -0.7766    Z=              0.0211  Tot=              1.8993
 Quadrupole moment (field-independent basis, Debye-Ang):
   XX=            -59.2633   YY=            -54.6199   ZZ=            -52.0766
   XY=            -11.3164   XZ=             -2.2763   YZ=             -0.2007

  Exact polarizability: 119.479   4.128  67.073   5.556  -0.041  63.670
 Approx polarizability: 155.505  14.511  98.332  14.598   3.039  94.645

                      1                      2                      3
                      A                      A                      A
 Frequencies --     16.1201                44.6128                73.8805
 Red. masses --      2.9482                 3.9272                 2.1204
 Frc consts  --      0.0005                 0.0046                 0.0068
 IR Inten    --      2.0159                 4.6646                 1.8019

                      4                      5                      6
                      A                      A                      A
 Frequencies --     86.8076               103.1309               135.6489
 Red. masses --      3.5035                 2.7704                 2.6008
 Frc consts  --      0.0156                 0.0174                 0.0282
 IR Inten    --      2.7540                 1.6959                 2.5016

                      7                      8                      9
                      A                      A                      A
 Frequencies --    230.6972               235.0142               306.7030
 Red. masses --      2.0902                 1.5802                 4.5743
 Frc consts  --      0.0655                 0.0514                 0.2535
 IR Inten    --      4.7462                 4.4721                 4.5503

                     10                     11                     12
                      A                      A                      A
 Frequencies --    311.5877               393.4637               465.5292
 Red. masses --      3.5533                 3.8638                 4.0003
 Frc consts  --      0.2033                 0.3524                 0.5108
 IR Inten    --      9.9498                 2.8682                17.0278

                     13                     14                     15
                      A                      A                      A
 Frequencies --    482.0961               543.8391               721.0994
 Red. masses --      3.7556                 6.1187                 1.6765
 Frc consts  --      0.5143                 1.0662                 0.5136
 IR Inten    --      1.9380                 2.2030                 0.7760

                     16                     17                     18
                      A                      A                      A
 Frequencies --    795.9328               830.2847               994.9160
 Red. masses --      1.1649                 2.9796                 3.8959
 Frc consts  --      0.4348                 1.2102                 2.2721
 IR Inten    --      0.1895                 2.2686                26.0209

                     19                     20                     21
                      A                      A                      A
 Frequencies --   1034.9598              1042.8509              1053.4510
 Red. masses --      3.7299                 1.7791                 3.5804
 Frc consts  --      2.3540                 1.1400                 2.3410
 IR Inten    --     46.1210                 1.9345                 0.0505

                     22                     23                     24
                      A                      A                      A
 Frequencies --   1087.0987              1156.2576              1169.3252
 Red. masses --      1.5395                 3.0902                 3.4565
 Frc consts  --      1.0720                 2.4342                 2.7845
 IR Inten    --      1.4994                95.4345                90.9922

                     25                     26                     27
                      A                      A                      A
 Frequencies --   1182.1783              1211.6095              1227.7889
 Red. masses --      1.2464                 1.1912                 1.7128
 Frc consts  --      1.0263                 1.0303                 1.5213
 IR Inten    --      1.8809                 3.4741                52.9875

                     28                     29                     30
                      A                      A                      A
 Frequencies --   1233.6678              1290.3749              1300.9206
 Red. masses --      1.2421                 1.5346                 1.0841
 Frc consts  --      1.1138                 1.5055                 1.0810
 IR Inten    --      4.9325                 8.7082                 0.4523

                     31                     32                     33
                      A                      A                      A
 Frequencies --   1317.1135              1414.8908              1420.0251
 Red. masses --      1.6418                 1.1680                 1.3677
 Frc consts  --      1.6781                 1.3776                 1.6249
 IR Inten    --      9.8331                 8.9818                26.4238

                     34                     35                     36
                      A                      A                      A
 Frequencies --   1441.7029              1475.6160              1482.1262
 Red. masses --      1.1009                 1.0829                 1.1571
 Frc consts  --      1.3482                 1.3892                 1.4975
 IR Inten    --      6.0576                 1.7336                 1.1176

                     37                     38                     39
                      A                      A                      A
 Frequencies --   1486.2788              1504.7803              1532.2498
 Red. masses --      1.0486                 1.0603                 1.0935
 Frc consts  --      1.3647                 1.4146                 1.5126
 IR Inten    --      5.1829                10.2947                 1.3461

                     40                     41                     42
                      A                      A                      A
 Frequencies --   1841.3601              2370.5302              2899.4632
 Red. masses --     10.2818                11.8481                 1.0849
 Frc consts  --     20.5398                39.2273                 5.3739
 IR Inten    --    206.6571                 1.6841                80.9423

                     43                     44                     45
                      A                      A                      A
 Frequencies --   2962.6950              2975.8164              2996.2621
 Red. masses --      1.0484                 1.0424                 1.1059
 Frc consts  --      5.4218                 5.4389                 5.8496
 IR Inten    --     26.4802                68.3697                52.6399

                     46                     47                     48
                      A                      A                      A
 Frequencies --   2999.1709              3017.0650              3033.4884
 Red. masses --      1.0671                 1.1034                 1.0581
 Frc consts  --      5.6553                 5.9175                 5.7367
 IR Inten    --     15.3391                51.9975                18.7232

                     49                     50                     51
                      A                      A                      A
 Frequencies --   3070.1926              3078.4090              3116.5488
 Red. masses --      1.1027                 1.0913                 1.0961
 Frc consts  --      6.1240                 6.0934                 6.2725
 IR Inten    --     15.0232                 5.9929                30.4383

 - Thermochemistry -
 -------------------
 Temperature   298.150 Kelvin.  Pressure   1.00000 Atm.
 Atom     1 has atomic number  6 and mass  12.00000

 Molecular mass:   126.06808 amu.
 Principal axes and moments of inertia in atomic units:
                           1         2         3
     Eigenvalues --   386.986274017.114034278.26208
           X            0.99984  -0.01794  -0.00229
           Y            0.01796   0.99982   0.00670
           Z            0.00217  -0.00674   0.99997
 This molecule is an asymmetric top.
 Rotational symmetry number  1.
 Rotational temperatures (Kelvin)      0.22382     0.02156     0.02025
 Rotational constants (GHZ):           4.66358     0.44926     0.42184
 Zero-point vibrational energy     407912.4 (Joules/Mol)
                                   97.49341 (Kcal/Mol)
 Warning -- explicit consideration of  14 degrees of freedom as
           vibrations may cause significant error
 Vibrational temperatures:     23.19    64.19   106.30   124.90   148.38
          (Kelvin)            195.17   331.92   338.13   441.28   448.30
                              566.11   669.79   693.63   782.46  1037.50
                             1145.17  1194.59  1431.46  1489.07  1500.43
                             1515.68  1564.09  1663.59  1682.40  1700.89
                             1743.23  1766.51  1774.97  1856.56  1871.73
                             1895.03  2035.71  2043.10  2074.29  2123.08
                             2132.45  2138.42  2165.04  2204.56  2649.30
                             3410.66  4171.68  4262.65  4281.53  4310.95
                             4315.13  4340.88  4364.51  4417.32  4429.14
                             4484.01

 Zero-point correction=                           0.155366 (Hartree/Particle)
 Thermal correction to Energy=                    0.166327
 Thermal correction to Enthalpy=                  0.167271
 Thermal correction to Gibbs Free Energy=         0.116055
 Sum of electronic and zero-point Energies=           -422.996518
 Sum of electronic and thermal Energies=              -422.985556
 Sum of electronic and thermal Enthalpies=            -422.984612
 Sum of electronic and thermal Free Energies=         -423.035828

                     E (Thermal)             CV                S
                      KCal/Mol        Cal/Mol-Kelvin    Cal/Mol-Kelvin
 Total                  104.372             35.967            107.792
 Electronic               0.000              0.000              0.000
 Translational            0.889              2.981             40.409
 Rotational               0.889              2.981             30.276
 Vibrational            102.594             30.006             37.108
 Vibration     1          0.593              1.986              7.063
 Vibration     2          0.595              1.980              5.043
 Vibration     3          0.599              1.966              4.047
 Vibration     4          0.601              1.958              3.731
 Vibration     5          0.605              1.947              3.394
 Vibration     6          0.613              1.918              2.864
 Vibration     7          0.652              1.794              1.874
 Vibration     8          0.655              1.787              1.840
 Vibration     9          0.697              1.661              1.380
 Vibration    10          0.700              1.652              1.354
 Vibration    11          0.761              1.484              0.987
 Vibration    12          0.823              1.327              0.750
 Vibration    13          0.838              1.290              0.704
 Vibration    14          0.899              1.153              0.557

 Optimization completed.
    -- Stationary point found.
 Normal termination of Gaussian 09 at Tue Jan 28 14:57:28 2020.
