 Gaussian 09, Revision D.01,
 Gaussian 09:  ES64L-G09RevD.01 24-Apr-2013

 -----------------------------
 # b3lyp 6-31G(2df,p) opt Freq
 -----------------------------

 -----
 titel
 -----
 Symbolic Z-matrix:
 Charge =  0 Multiplicity = 1

 SCF Done:  E(RB3LYP) =  -423.123272672     A.U. after   13 cycles
 Optimization completed.
    -- Stationary point found.
 Normal termination of Gaussian 09 at Tue Jan 28 14:14:34 2020.

 ----------------------------------------------------------------------
 #N Geom=AllCheck Guess=TCheck SCRF=Check GenChk RB3LYP/6-31G(2df,p) Fr
 eq
 ----------------------------------------------------------------------

 Structure from the checkpoint file:  "/scratch/puck/g09_48272c76-393e-4a52-9f58-f617fcc223d2/Gau-98542.chk"
 -----
 titel
 -----
 Charge =  0 Multiplicity = 1

                         Standard orientation:
 ---------------------------------------------------------------------
 Center     Atomic      Atomic             Coordinates (Angstroms)
 Number     Number       Type             X           Y           Z
 ---------------------------------------------------------------------
      1          6           0       -3.516948   -0.122490    0.070343
      2          6           0       -2.194264    0.559398   -0.232302
      3          8           0       -1.160617   -0.409314   -0.140653
      4          6           0        0.095554    0.069752   -0.472518
      5          6           0        1.227762   -0.989593   -0.260807
      6          6           0        2.443957   -0.181576   -0.726463
      7          6           0        2.267608    0.967068   -0.062712
      8          6           0        0.974790    0.682273    0.702061
      9          8           0        1.178019   -0.686654    1.167078
     10          1           0       -4.338884    0.596849    0.007584
     11          1           0       -3.703963   -0.929079   -0.644068
     12          1           0       -3.504836   -0.551361    1.076043
     13          1           0       -2.204746    1.001648   -1.242218
     14          1           0       -2.010398    1.379554    0.479446
     15          1           0        0.088194    0.625712   -1.420882
     16          1           0        1.112344   -2.042152   -0.513048
     17          1           0        3.198589   -0.481740   -1.438062
     18          1           0        2.833515    1.886880   -0.078143
     19          1           0        0.600220    1.372448    1.456327
 ---------------------------------------------------------------------

 SCF Done:  E(RB3LYP) =  -423.123272672     A.U. after    1 cycles

 The electronic state is 1-A.
 Alpha  occ. eigenvalues --  -19.14498 -19.12546 -10.24116 -10.23861 -10.23744
 Alpha  occ. eigenvalues --  -10.23304 -10.18730 -10.18644 -10.17756  -1.06060
 Alpha  occ. eigenvalues --   -1.02574  -0.80568  -0.76339  -0.69355  -0.68517
 Alpha  occ. eigenvalues --   -0.61418  -0.55702  -0.54329  -0.53095  -0.49827
 Alpha  occ. eigenvalues --   -0.47457  -0.46118  -0.42704  -0.40065  -0.39508
 Alpha  occ. eigenvalues --   -0.38546  -0.36952  -0.35821  -0.35177  -0.33792
 Alpha  occ. eigenvalues --   -0.30561  -0.26495  -0.24513  -0.23707
 Alpha virt. eigenvalues --    0.00163   0.09400   0.10206   0.11962   0.12201
 Alpha virt. eigenvalues --    0.12960   0.14527   0.15310   0.15862   0.16791
 Alpha virt. eigenvalues --    0.17144   0.18362   0.19036   0.20136   0.20873

 Mulliken charges:
               1
     1  C   -0.385305
     2  C   -0.046417
     3  O   -0.258683
     4  C    0.189277
     5  C   -0.028195
     6  C   -0.087435
     7  C   -0.082535
     8  C   -0.034744
     9  O   -0.278469
    10  H    0.115139
    11  H    0.127836
    12  H    0.133302
    13  H    0.089498
    14  H    0.091914
    15  H    0.066517
    16  H    0.085076
    17  H    0.111769
    18  H    0.110224
    19  H    0.081230
 Sum of Mulliken charges =   0.00000

 Dipole moment (field-independent basis, Debye):
    X=             -0.5112    Y=              1.7813    Z=             -1.7761  Tot=              2.5668
 Quadrupole moment (field-independent basis, Debye-Ang):
   XX=            -49.8700   YY=            -51.0580   ZZ=            -54.5999
   XY=             -0.4318   XZ=             -3.0344   YZ=              3.2141

  Exact polarizability:  93.189   0.727  73.160  -4.985   5.405  64.652
 Approx polarizability: 112.372  -0.461 120.515  -6.483  11.120 104.378

                      1                      2                      3
                      A                      A                      A
 Frequencies --     63.6624                76.3458               131.9290
 Red. masses --      2.6422                 2.2250                 3.5462
 Frc consts  --      0.0063                 0.0076                 0.0364
 IR Inten    --      0.4606                 2.1694                 0.4842

                      4                      5                      6
                      A                      A                      A
 Frequencies --    238.9368               304.4942               326.1970
 Red. masses --      1.1877                 4.0406                 3.2507
 Frc consts  --      0.0399                 0.2207                 0.2038
 IR Inten    --      0.5161                 2.6123                 1.0254

                      7                      8                      9
                      A                      A                      A
 Frequencies --    373.6209               523.0340               552.3922
 Red. masses --      4.0918                 3.0702                 2.7872
 Frc consts  --      0.3365                 0.4949                 0.5011
 IR Inten    --      0.0543                 1.8072                 4.7028

                     10                     11                     12
                      A                      A                      A
 Frequencies --    642.1414               714.9966               749.5962
 Red. masses --      3.8099                 1.9103                 4.5447
 Frc consts  --      0.9256                 0.5754                 1.5046
 IR Inten    --      5.3138                40.7779                 1.3773

                     13                     14                     15
                      A                      A                      A
 Frequencies --    819.2909               842.0893               868.3612
 Red. masses --      1.0992                 2.6489                 2.5744
 Frc consts  --      0.4347                 1.1067                 1.1437
 IR Inten    --      0.4309                24.5492                13.2809

                     16                     17                     18
                      A                      A                      A
 Frequencies --    887.6173               903.9996               914.8739
 Red. masses --      2.3216                 2.3528                 1.7545
 Frc consts  --      1.0777                 1.1328                 0.8652
 IR Inten    --      6.3638                 9.6722                 1.9237

                     19                     20                     21
                      A                      A                      A
 Frequencies --    922.3165               945.3160               964.8076
 Red. masses --      2.4520                 3.9042                 3.2994
 Frc consts  --      1.2289                 2.0556                 1.8095
 IR Inten    --     13.2795                20.4592                 5.5182

                     22                     23                     24
                      A                      A                      A
 Frequencies --   1026.5840              1057.9493              1135.0544
 Red. masses --      1.6767                 3.1614                 1.4130
 Frc consts  --      1.0411                 2.0848                 1.0726
 IR Inten    --      7.3868                 7.3181                 4.5409

                     25                     26                     27
                      A                      A                      A
 Frequencies --   1139.4965              1151.9006              1163.3197
 Red. masses --      2.0819                 2.5853                 2.7489
 Frc consts  --      1.5927                 2.0211                 2.1918
 IR Inten    --      7.7596               143.0698               119.0610

                     28                     29                     30
                      A                      A                      A
 Frequencies --   1186.6013              1202.0342              1229.1648
 Red. masses --      1.5404                 1.5191                 1.4904
 Frc consts  --      1.2779                 1.2932                 1.3267
 IR Inten    --      9.3937                 3.0039                53.4911

                     31                     32                     33
                      A                      A                      A
 Frequencies --   1237.4047              1296.8538              1303.2433
 Red. masses --      1.5378                 1.1154                 1.4361
 Frc consts  --      1.3873                 1.1053                 1.4371
 IR Inten    --     38.6940                 3.4233                20.0040

                     34                     35                     36
                      A                      A                      A
 Frequencies --   1308.3875              1366.3169              1404.0320
 Red. masses --      1.7557                 1.2103                 1.2441
 Frc consts  --      1.7708                 1.3312                 1.4450
 IR Inten    --      8.1724                81.8462                 5.1416

                     37                     38                     39
                      A                      A                      A
 Frequencies --   1440.0677              1483.0057              1499.8701
 Red. masses --      1.4454                 1.0402                 1.0459
 Frc consts  --      1.7660                 1.3479                 1.3863
 IR Inten    --      5.4638                 4.1830                 2.1106

                     40                     41                     42
                      A                      A                      A
 Frequencies --   1527.7091              1604.8286              2965.1565
 Red. masses --      1.0902                 5.7030                 1.0568
 Frc consts  --      1.4992                 8.6539                 5.4746
 IR Inten    --      2.6461                 0.1638                38.9506

                     43                     44                     45
                      A                      A                      A
 Frequencies --   2996.4572              3007.1433              3046.5774
 Red. masses --      1.1039                 1.0848                 1.0347
 Frc consts  --      5.8397                 5.7800                 5.6585
 IR Inten    --     49.9227                54.8565                17.5869

                     46                     47                     48
                      A                      A                      A
 Frequencies --   3120.8389              3125.1240              3138.2057
 Red. masses --      1.1016                 1.1027                 1.0905
 Frc consts  --      6.3212                 6.3452                 6.3273
 IR Inten    --     22.6895                22.3385                41.0804

                     49                     50                     51
                      A                      A                      A
 Frequencies --   3146.0127              3231.3777              3258.0265
 Red. masses --      1.0928                 1.0871                 1.1109
 Frc consts  --      6.3726                 6.6877                 6.9478
 IR Inten    --     18.4648                 3.0630                 6.2108

 - Thermochemistry -
 -------------------
 Temperature   298.150 Kelvin.  Pressure   1.00000 Atm.
 Atom     1 has atomic number  6 and mass  12.00000

 Molecular mass:   126.06808 amu.
 Principal axes and moments of inertia in atomic units:
                           1         2         3
     Eigenvalues --   379.636891909.233001946.10464
           X            0.99996   0.00203  -0.00914
           Y           -0.00013   0.97908   0.20349
           Z            0.00936  -0.20348   0.97903
 This molecule is an asymmetric top.
 Rotational symmetry number  1.
 Rotational temperatures (Kelvin)      0.22815     0.04537     0.04451
 Rotational constants (GHZ):           4.75386     0.94527     0.92736
 Zero-point vibrational energy     416089.7 (Joules/Mol)
                                   99.44782 (Kcal/Mol)
 Warning -- explicit consideration of   9 degrees of freedom as
           vibrations may cause significant error
 Vibrational temperatures:     91.60   109.84   189.82   343.78   438.10
          (Kelvin)            469.32   537.56   752.53   794.77   923.90
                             1028.72  1078.50  1178.78  1211.58  1249.38
                             1277.08  1300.65  1316.30  1327.01  1360.10
                             1388.14  1477.02  1522.15  1633.09  1639.48
                             1657.33  1673.76  1707.25  1729.46  1768.49
                             1780.35  1865.88  1875.07  1882.48  1965.82
                             2020.09  2071.93  2133.71  2157.98  2198.03
                             2308.99  4266.19  4311.23  4326.60  4383.34
                             4490.19  4496.35  4515.17  4526.40  4649.23
                             4687.57

 Zero-point correction=                           0.158480 (Hartree/Particle)
 Thermal correction to Energy=                    0.166733
 Thermal correction to Enthalpy=                  0.167677
 Thermal correction to Gibbs Free Energy=         0.124920
 Sum of electronic and zero-point Energies=           -422.964792
 Sum of electronic and thermal Energies=              -422.956540
 Sum of electronic and thermal Enthalpies=            -422.955596
 Sum of electronic and thermal Free Energies=         -422.998352

                     E (Thermal)             CV                S
                      KCal/Mol        Cal/Mol-Kelvin    Cal/Mol-Kelvin
 Total                  104.626             31.250             89.989
 Electronic               0.000              0.000              0.000
 Translational            0.889              2.981             40.409
 Rotational               0.889              2.981             28.735
 Vibrational            102.849             25.289             20.845
 Vibration     1          0.597              1.972              4.340
 Vibration     2          0.599              1.965              3.983
 Vibration     3          0.612              1.921              2.918
 Vibration     4          0.657              1.781              1.811
 Vibration     5          0.695              1.665              1.392
 Vibration     6          0.710              1.623              1.279
 Vibration     7          0.745              1.526              1.065
 Vibration     8          0.878              1.199              0.603
 Vibration     9          0.908              1.134              0.539

 Normal termination of Gaussian 09 at Tue Jan 28 14:58:23 2020.
