 Gaussian 09, Revision D.01,
 Gaussian 09:  ES64L-G09RevD.01 24-Apr-2013

 -----------------------------
 # b3lyp 6-31G(2df,p) opt Freq
 -----------------------------

 -----
 titel
 -----
 Symbolic Z-matrix:
 Charge =  0 Multiplicity = 1

 SCF Done:  E(RB3LYP) =  -423.176422759     A.U. after   14 cycles
 Optimization completed.
    -- Stationary point found.
 Normal termination of Gaussian 09 at Tue Jan 28 13:46:38 2020.

 ----------------------------------------------------------------------
 #N Geom=AllCheck Guess=TCheck SCRF=Check GenChk RB3LYP/6-31G(2df,p) Fr
 eq
 ----------------------------------------------------------------------

 Structure from the checkpoint file:  "/scratch/puck/g09_1cc2d4e2-594f-436a-a97c-fa22c59ccfce/Gau-119730.chk"
 -----
 titel
 -----
 Charge =  0 Multiplicity = 1

                         Standard orientation:
 ---------------------------------------------------------------------
 Center     Atomic      Atomic             Coordinates (Angstroms)
 Number     Number       Type             X           Y           Z
 ---------------------------------------------------------------------
      1          8           0       -3.111462   -0.168599   -0.427157
      2          6           0       -2.142779    0.621163    0.232327
      3          6           0       -0.751410    0.295065   -0.281974
      4          8           0       -0.495610   -1.126063   -0.104359
      5          6           0        0.705261   -0.842099    0.672730
      6          6           0        1.982420   -1.047476   -0.092667
      7          6           0        2.496944    0.109155   -0.511506
      8          6           0        1.682184    1.312978   -0.091980
      9          6           0        0.455678    0.687109    0.598795
     10          1           0       -2.796907   -1.078666   -0.354227
     11          1           0       -2.387906    1.671274    0.034701
     12          1           0       -2.171247    0.466776    1.324115
     13          1           0       -0.662890    0.574516   -1.340487
     14          1           0        0.667614   -1.356834    1.638815
     15          1           0        2.400273   -2.029894   -0.279550
     16          1           0        3.407983    0.208980   -1.092680
     17          1           0        2.249611    1.962078    0.587217
     18          1           0        1.403699    1.939782   -0.949311
     19          1           0        0.176563    1.183919    1.529194
 ---------------------------------------------------------------------

 SCF Done:  E(RB3LYP) =  -423.176422759     A.U. after    1 cycles

 The electronic state is 1-A.
 Alpha  occ. eigenvalues --  -19.13337 -19.12720 -10.23723 -10.23090 -10.22293
 Alpha  occ. eigenvalues --  -10.19542 -10.19511 -10.19410 -10.18418  -1.04004
 Alpha  occ. eigenvalues --   -1.00647  -0.83716  -0.75437  -0.69941  -0.69570
 Alpha  occ. eigenvalues --   -0.62120  -0.55828  -0.53006  -0.52326  -0.49759
 Alpha  occ. eigenvalues --   -0.47990  -0.45788  -0.42185  -0.41298  -0.40070
 Alpha  occ. eigenvalues --   -0.39007  -0.37542  -0.36508  -0.34000  -0.31275
 Alpha  occ. eigenvalues --   -0.30221  -0.27048  -0.25967  -0.24431
 Alpha virt. eigenvalues --    0.00574   0.08081   0.09323   0.11046   0.11913
 Alpha virt. eigenvalues --    0.13238   0.13929   0.14499   0.15998   0.16111
 Alpha virt. eigenvalues --    0.17135   0.18200   0.19161   0.20209   0.22026

 Mulliken charges:
               1
     1  O   -0.422244
     2  C   -0.071649
     3  C    0.123975
     4  O   -0.332284
     5  C    0.095075
     6  C   -0.083217
     7  C   -0.055506
     8  C   -0.286204
     9  C   -0.111044
    10  H    0.293664
    11  H    0.104807
    12  H    0.080623
    13  H    0.080697
    14  H    0.080145
    15  H    0.101186
    16  H    0.100959
    17  H    0.110851
    18  H    0.111720
    19  H    0.078443
 Sum of Mulliken charges =   0.00000

 Dipole moment (field-independent basis, Debye):
    X=              2.4914    Y=              0.9439    Z=              0.9927  Tot=              2.8431
 Quadrupole moment (field-independent basis, Debye-Ang):
   XX=            -58.5975   YY=            -50.6288   ZZ=            -52.6780
   XY=              0.3071   XZ=             -2.7257   YZ=             -0.7736

  Exact polarizability:  87.434   0.914  78.591  -4.070  -3.004  62.009
 Approx polarizability: 112.703   7.271 126.664  -3.666  -7.637  96.694

                      1                      2                      3
                      A                      A                      A
 Frequencies --     72.1737               112.5274               164.9310
 Red. masses --      5.1693                 2.9182                 3.4729
 Frc consts  --      0.0159                 0.0218                 0.0557
 IR Inten    --      0.7913                 3.5719                 0.3917

                      4                      5                      6
                      A                      A                      A
 Frequencies --    274.1526               290.0396               354.1710
 Red. masses --      3.5416                 2.3766                 3.7972
 Frc consts  --      0.1568                 0.1178                 0.2806
 IR Inten    --      0.9980                 1.6284                 3.5108

                      7                      8                      9
                      A                      A                      A
 Frequencies --    465.1974               481.4257               554.9699
 Red. masses --      1.2125                 2.0606                 2.9077
 Frc consts  --      0.1546                 0.2814                 0.5276
 IR Inten    --    104.6209                23.8103                 8.2641

                     10                     11                     12
                      A                      A                      A
 Frequencies --    666.7867               737.1023               769.3269
 Red. masses --      4.9920                 1.4843                 5.6653
 Frc consts  --      1.3077                 0.4752                 1.9756
 IR Inten    --      2.4912                15.6238                 0.1542

                     13                     14                     15
                      A                      A                      A
 Frequencies --    834.7609               859.3720               881.7961
 Red. masses --      2.9324                 2.0409                 2.4900
 Frc consts  --      1.2039                 0.8880                 1.1407
 IR Inten    --     15.0895                 4.4332                 3.9967

                     16                     17                     18
                      A                      A                      A
 Frequencies --    916.2310               946.4235               964.4262
 Red. masses --      2.1243                 2.3584                 3.5846
 Frc consts  --      1.0507                 1.2446                 1.9644
 IR Inten    --     19.3043                 5.7017                95.1975

                     19                     20                     21
                      A                      A                      A
 Frequencies --    981.2347              1006.7430              1025.0490
 Red. masses --      1.2885                 2.7889                 2.1993
 Frc consts  --      0.7309                 1.6654                 1.3615
 IR Inten    --      2.3122                40.6837                33.1732

                     22                     23                     24
                      A                      A                      A
 Frequencies --   1041.1283              1079.8075              1091.8890
 Red. masses --      2.3020                 2.4035                 2.9642
 Frc consts  --      1.4701                 1.6512                 2.0822
 IR Inten    --     29.7773                38.9266                24.8896

                     25                     26                     27
                      A                      A                      A
 Frequencies --   1108.2428              1131.0512              1179.1373
 Red. masses --      2.0540                 1.1637                 1.2594
 Frc consts  --      1.4863                 0.8771                 1.0317
 IR Inten    --     13.2848                 0.9145                 2.6193

                     28                     29                     30
                      A                      A                      A
 Frequencies --   1217.5038              1222.7435              1244.6259
 Red. masses --      1.4417                 1.5779                 1.2972
 Frc consts  --      1.2591                 1.3900                 1.1840
 IR Inten    --      2.8394                14.3558                 0.7879

                     31                     32                     33
                      A                      A                      A
 Frequencies --   1282.1968              1302.7206              1328.8577
 Red. masses --      1.3693                 1.3400                 1.5075
 Frc consts  --      1.3264                 1.3399                 1.5684
 IR Inten    --      2.9365                 4.2989                 9.2866

                     34                     35                     36
                      A                      A                      A
 Frequencies --   1336.8344              1356.7500              1380.9727
 Red. masses --      1.5410                 1.3692                 1.6304
 Frc consts  --      1.6226                 1.4850                 1.8320
 IR Inten    --      4.6364                 4.1632                 8.7624

                     37                     38                     39
                      A                      A                      A
 Frequencies --   1399.8561              1436.5181              1484.6244
 Red. masses --      1.3217                 1.3712                 1.0920
 Frc consts  --      1.5259                 1.6672                 1.4181
 IR Inten    --     29.1425                65.6008                 2.6869

                     40                     41                     42
                      A                      A                      A
 Frequencies --   1497.7242              1676.8297              2962.9340
 Red. masses --      1.0944                 6.1624                 1.0697
 Frc consts  --      1.4465                10.2089                 5.5328
 IR Inten    --      0.3066                 2.5493                44.5211

                     43                     44                     45
                      A                      A                      A
 Frequencies --   3016.3327              3019.6912              3043.8324
 Red. masses --      1.0769                 1.0666                 1.1021
 Frc consts  --      5.7729                 5.7304                 6.0159
 IR Inten    --     27.1334                48.1587                23.4232

                     46                     47                     48
                      A                      A                      A
 Frequencies --   3048.0103              3063.8282              3096.9562
 Red. masses --      1.0865                 1.0932                 1.0877
 Frc consts  --      5.9470                 6.0459                 6.1468
 IR Inten    --     41.5106                39.4510                30.5458

                     49                     50                     51
                      A                      A                      A
 Frequencies --   3181.9631              3210.6479              3778.9355
 Red. masses --      1.0857                 1.1028                 1.0654
 Frc consts  --      6.4769                 6.6977                 8.9636
 IR Inten    --      8.4478                17.2864                26.0490

 - Thermochemistry -
 -------------------
 Temperature   298.150 Kelvin.  Pressure   1.00000 Atm.
 Atom     1 has atomic number  8 and mass  15.99491

 Molecular mass:   126.06808 amu.
 Principal axes and moments of inertia in atomic units:
                           1         2         3
     Eigenvalues --   439.920731635.460951868.07785
           X            0.99995  -0.00014  -0.01016
           Y            0.00007   0.99998  -0.00676
           Z            0.01016   0.00676   0.99993
 This molecule is an asymmetric top.
 Rotational symmetry number  1.
 Warning -- assumption of classical behavior for rotation
           may cause significant error
 Rotational temperatures (Kelvin)      0.19689     0.05296     0.04637
 Rotational constants (GHZ):           4.10242     1.10351     0.96610
 Zero-point vibrational energy     422174.0 (Joules/Mol)
                                  100.90201 (Kcal/Mol)
 Warning -- explicit consideration of   9 degrees of freedom as
           vibrations may cause significant error
 Vibrational temperatures:    103.84   161.90   237.30   394.44   417.30
          (Kelvin)            509.57   669.31   692.66   798.48   959.36
                             1060.52  1106.89  1201.03  1236.44  1268.71
                             1318.25  1361.69  1387.59  1411.78  1448.48
                             1474.82  1497.95  1553.60  1570.98  1594.51
                             1627.33  1696.51  1751.71  1759.25  1790.74
                             1844.79  1874.32  1911.93  1923.40  1952.06
                             1986.91  2014.08  2066.83  2136.04  2154.89
                             2412.58  4263.00  4339.82  4344.66  4379.39
                             4385.40  4408.16  4455.82  4578.13  4619.40
                             5437.04

 Zero-point correction=                           0.160798 (Hartree/Particle)
 Thermal correction to Energy=                    0.168696
 Thermal correction to Enthalpy=                  0.169641
 Thermal correction to Gibbs Free Energy=         0.127946
 Sum of electronic and zero-point Energies=           -423.015625
 Sum of electronic and thermal Energies=              -423.007726
 Sum of electronic and thermal Enthalpies=            -423.006782
 Sum of electronic and thermal Free Energies=         -423.048476

                     E (Thermal)             CV                S
                      KCal/Mol        Cal/Mol-Kelvin    Cal/Mol-Kelvin
 Total                  105.859             30.397             87.753
 Electronic               0.000              0.000              0.000
 Translational            0.889              2.981             40.409
 Rotational               0.889              2.981             28.687
 Vibrational            104.081             24.435             18.657
 Vibration     1          0.598              1.967              4.093
 Vibration     2          0.607              1.939              3.225
 Vibration     3          0.623              1.886              2.492
 Vibration     4          0.676              1.721              1.570
 Vibration     5          0.686              1.692              1.474
 Vibration     6          0.730              1.567              1.148
 Vibration     7          0.823              1.327              0.751
 Vibration     8          0.838              1.291              0.706
 Vibration     9          0.910              1.129              0.534

 Normal termination of Gaussian 09 at Tue Jan 28 14:27:54 2020.
