 Gaussian 09, Revision D.01,
 Gaussian 09:  ES64L-G09RevD.01 24-Apr-2013

 -----------------------------
 # b3lyp 6-31G(2df,p) opt Freq
 -----------------------------

 -----
 titel
 -----
 Symbolic Z-matrix:
 Charge =  0 Multiplicity = 1

 SCF Done:  E(RB3LYP) =  -423.192519435     A.U. after   14 cycles
 Optimization completed.
    -- Stationary point found.
 Normal termination of Gaussian 09 at Mon Jan 27 15:42:38 2020.

 ----------------------------------------------------------------------
 #N Geom=AllCheck Guess=TCheck SCRF=Check GenChk RB3LYP/6-31G(2df,p) Fr
 eq
 ----------------------------------------------------------------------

 Structure from the checkpoint file:  "/scratch/puck/g09_6989bf73-4204-4b68-a14c-88c281c0c5a9/Gau-9867.chk"
 -----
 titel
 -----
 Charge =  0 Multiplicity = 1

                         Standard orientation:
 ---------------------------------------------------------------------
 Center     Atomic      Atomic             Coordinates (Angstroms)
 Number     Number       Type             X           Y           Z
 ---------------------------------------------------------------------
      1          6           0       -2.322770   -1.181439   -0.939256
      2          6           0       -1.712649   -0.049380   -0.127039
      3          6           0       -2.044018   -0.117580    1.359445
      4          8           0       -0.271183   -0.160457   -0.307524
      5          6           0        0.450300    0.957231   -0.170382
      6          8           0        0.004314    2.048478    0.079752
      7          6           0        1.937710    0.705122   -0.433669
      8          6           0        2.460408   -0.561081    0.056722
      9          6           0        2.918011   -1.592482    0.467465
     10          1           0       -2.039456   -1.102357   -1.992166
     11          1           0       -1.986595   -2.152711   -0.563661
     12          1           0       -3.413955   -1.143769   -0.871258
     13          1           0       -2.014964    0.922636   -0.526610
     14          1           0       -1.688438   -1.058995    1.789698
     15          1           0       -1.583337    0.715295    1.894900
     16          1           0       -3.127465   -0.059564    1.502783
     17          1           0        2.076872    0.769969   -1.521748
     18          1           0        2.477915    1.551620   -0.000754
     19          1           0        3.312418   -2.508630    0.831282
 ---------------------------------------------------------------------

 SCF Done:  E(RB3LYP) =  -423.192519435     A.U. after    1 cycles

 The electronic state is 1-A.
 Alpha  occ. eigenvalues --  -19.18234 -19.12764 -10.31234 -10.24664 -10.22316
 Alpha  occ. eigenvalues --  -10.18701 -10.18344 -10.18007 -10.17499  -1.10287
 Alpha  occ. eigenvalues --   -1.01675  -0.81236  -0.78203  -0.71577  -0.69750
 Alpha  occ. eigenvalues --   -0.63160  -0.55695  -0.54128  -0.50090  -0.48529
 Alpha  occ. eigenvalues --   -0.47413  -0.45219  -0.44336  -0.43156  -0.40369
 Alpha  occ. eigenvalues --   -0.39655  -0.38888  -0.36533  -0.35850  -0.33548
 Alpha  occ. eigenvalues --   -0.30207  -0.28997  -0.26874  -0.25771
 Alpha virt. eigenvalues --    0.01123   0.05040   0.05517   0.09063   0.10900
 Alpha virt. eigenvalues --    0.12370   0.13228   0.14002   0.14863   0.16849
 Alpha virt. eigenvalues --    0.17711   0.18299   0.18465   0.18960   0.20701

 Mulliken charges:
               1
     1  C   -0.393297
     2  C    0.145138
     3  C   -0.396593
     4  O   -0.240654
     5  C    0.448633
     6  O   -0.364634
     7  C   -0.463945
     8  C    0.322467
     9  C   -0.453632
    10  H    0.124856
    11  H    0.129396
    12  H    0.121289
    13  H    0.110730
    14  H    0.125684
    15  H    0.142054
    16  H    0.119707
    17  H    0.160794
    18  H    0.162302
    19  H    0.199706
 Sum of Mulliken charges =   0.00000

 Dipole moment (field-independent basis, Debye):
    X=             -0.6403    Y=             -1.5037    Z=             -0.4499  Tot=              1.6951
 Quadrupole moment (field-independent basis, Debye-Ang):
   XX=            -48.0096   YY=            -56.0854   ZZ=            -51.6661
   XY=              0.7946   XZ=             -0.0669   YZ=             -2.4505

  Exact polarizability:  86.172  -5.615  84.113   1.730  -4.461  62.877
 Approx polarizability: 106.637 -15.332 139.248   4.018 -10.003  90.989

                      1                      2                      3
                      A                      A                      A
 Frequencies --     14.1809                63.6698                83.5339
 Red. masses --      3.0218                 4.3787                 3.9982
 Frc consts  --      0.0004                 0.0105                 0.0164
 IR Inten    --      0.4433                 2.1641                 0.1393

                      4                      5                      6
                      A                      A                      A
 Frequencies --    126.8447               202.0137               213.9934
 Red. masses --      3.3855                 1.7434                 1.2645
 Frc consts  --      0.0321                 0.0419                 0.0341
 IR Inten    --      1.7935                 1.4034                 0.7212

                      7                      8                      9
                      A                      A                      A
 Frequencies --    255.9999               296.4364               328.1402
 Red. masses --      1.3023                 3.0819                 2.9344
 Frc consts  --      0.0503                 0.1596                 0.1862
 IR Inten    --      0.8224                 4.8236                 3.9879

                     10                     11                     12
                      A                      A                      A
 Frequencies --    384.0069               410.0104               450.6351
 Red. masses --      3.1914                 3.4663                 3.2727
 Frc consts  --      0.2773                 0.3433                 0.3916
 IR Inten    --      2.5165                10.1943                 0.7698

                     13                     14                     15
                      A                      A                      A
 Frequencies --    490.9928               594.5786               625.9585
 Red. masses --      3.9676                 3.7111                 1.2225
 Frc consts  --      0.5635                 0.7730                 0.2822
 IR Inten    --      0.8414                 3.4678                43.7122

                     16                     17                     18
                      A                      A                      A
 Frequencies --    646.8649               703.9470               839.5675
 Red. masses --      1.2735                 3.7378                 3.2631
 Frc consts  --      0.3140                 1.0913                 1.3552
 IR Inten    --     42.3317                11.3139                15.0240

                     19                     20                     21
                      A                      A                      A
 Frequencies --    887.8428               934.9304               949.2844
 Red. masses --      3.2561                 1.2301                 2.1026
 Frc consts  --      1.5122                 0.6335                 1.1164
 IR Inten    --      7.4844                 0.7061                 3.4416

                     22                     23                     24
                      A                      A                      A
 Frequencies --    953.2962               978.1672               999.6375
 Red. masses --      1.7370                 3.3315                 3.1688
 Frc consts  --      0.9301                 1.8781                 1.8656
 IR Inten    --      1.3146                31.9625                 9.9080

                     25                     26                     27
                      A                      A                      A
 Frequencies --   1137.1762              1163.6360              1203.6179
 Red. masses --      1.9249                 2.0577                 1.9236
 Frc consts  --      1.4666                 1.6416                 1.6419
 IR Inten    --    112.0600                 9.9390                32.9842

                     28                     29                     30
                      A                      A                      A
 Frequencies --   1208.2969              1284.8077              1316.5499
 Red. masses --      1.2875                 3.3605                 1.4780
 Frc consts  --      1.1075                 3.2684                 1.5094
 IR Inten    --     57.6578               338.5814                 8.6329

                     31                     32                     33
                      A                      A                      A
 Frequencies --   1363.0429              1386.9155              1403.1422
 Red. masses --      1.4363                 1.2672                 1.3503
 Frc consts  --      1.5723                 1.4362                 1.5664
 IR Inten    --     10.6546                 5.9160                16.4998

                     34                     35                     36
                      A                      A                      A
 Frequencies --   1418.4624              1448.6141              1481.1638
 Red. masses --      1.2621                 1.0864                 1.0558
 Frc consts  --      1.4962                 1.3432                 1.3647
 IR Inten    --      5.3374                 3.5371                 1.1024

                     37                     38                     39
                      A                      A                      A
 Frequencies --   1485.9017              1495.4258              1510.3494
 Red. masses --      1.0443                 1.0523                 1.0506
 Frc consts  --      1.3585                 1.3865                 1.4120
 IR Inten    --      1.5491                 3.4090                 7.6641

                     40                     41                     42
                      A                      A                      A
 Frequencies --   1814.2204              2247.5577              3024.8447
 Red. masses --     11.8785                 5.9155                 1.0674
 Frc consts  --     23.0352                17.6060                 5.7543
 IR Inten    --    251.0867                 1.6009                 6.6055

                     43                     44                     45
                      A                      A                      A
 Frequencies --   3041.7531              3046.0178              3075.7001
 Red. masses --      1.0350                 1.0358                 1.0852
 Frc consts  --      5.6423                 5.6624                 6.0483
 IR Inten    --     12.2746                13.8342                 3.4308

                     46                     47                     48
                      A                      A                      A
 Frequencies --   3094.4750              3112.1985              3122.0063
 Red. masses --      1.0917                 1.1019                 1.1012
 Frc consts  --      6.1590                 6.2885                 6.3238
 IR Inten    --      2.1830                 2.0364                35.9143

                     49                     50                     51
                      A                      A                      A
 Frequencies --   3122.9054              3134.9600              3506.5127
 Red. masses --      1.1015                 1.1016                 1.1632
 Frc consts  --      6.3295                 6.3786                 8.4264
 IR Inten    --     27.1828                13.7988                64.3569

 - Thermochemistry -
 -------------------
 Temperature   298.150 Kelvin.  Pressure   1.00000 Atm.
 Atom     1 has atomic number  6 and mass  12.00000

 Molecular mass:   126.06808 amu.
 Principal axes and moments of inertia in atomic units:
                           1         2         3
     Eigenvalues --   756.301231754.964512101.71402
           X            0.99970   0.02414  -0.00513
           Y           -0.02414   0.99971  -0.00019
           Z            0.00512   0.00031   0.99999
 This molecule is an asymmetric top.
 Rotational symmetry number  1.
 Warning -- assumption of classical behavior for rotation
           may cause significant error
 Rotational temperatures (Kelvin)      0.11452     0.04935     0.04121
 Rotational constants (GHZ):           2.38627     1.02836     0.85870
 Zero-point vibrational energy     407237.5 (Joules/Mol)
                                   97.33209 (Kcal/Mol)
 Warning -- explicit consideration of  14 degrees of freedom as
           vibrations may cause significant error
 Vibrational temperatures:     20.40    91.61   120.19   182.50   290.65
          (Kelvin)            307.89   368.33   426.51   472.12   552.50
                              589.91   648.36   706.43   855.46   900.61
                              930.69  1012.82  1207.95  1277.41  1345.15
                             1365.81  1371.58  1407.36  1438.25  1636.14
                             1674.21  1731.74  1738.47  1848.55  1894.22
                             1961.11  1995.46  2018.81  2040.85  2084.23
                             2131.06  2137.88  2151.58  2173.05  2610.26
                             3233.73  4352.07  4376.40  4382.53  4425.24
                             4452.25  4477.75  4491.87  4493.16  4510.50
                             5045.08

 Zero-point correction=                           0.155109 (Hartree/Particle)
 Thermal correction to Energy=                    0.165664
 Thermal correction to Enthalpy=                  0.166608
 Thermal correction to Gibbs Free Energy=         0.117664
 Sum of electronic and zero-point Energies=           -423.037411
 Sum of electronic and thermal Energies=              -423.026856
 Sum of electronic and thermal Enthalpies=            -423.025911
 Sum of electronic and thermal Free Energies=         -423.074856

                     E (Thermal)             CV                S
                      KCal/Mol        Cal/Mol-Kelvin    Cal/Mol-Kelvin
 Total                  103.956             37.118            103.012
 Electronic               0.000              0.000              0.000
 Translational            0.889              2.981             40.409
 Rotational               0.889              2.981             29.413
 Vibrational            102.178             31.157             33.191
 Vibration     1          0.593              1.986              7.317
 Vibration     2          0.597              1.972              4.340
 Vibration     3          0.600              1.961              3.806
 Vibration     4          0.611              1.926              2.993
 Vibration     5          0.639              1.837              2.115
 Vibration     6          0.644              1.820              2.009
 Vibration     7          0.666              1.753              1.689
 Vibration     8          0.690              1.680              1.437
 Vibration     9          0.711              1.619              1.269
 Vibration    10          0.753              1.504              1.023
 Vibration    11          0.774              1.448              0.927
 Vibration    12          0.809              1.359              0.794
 Vibration    13          0.847              1.270              0.681
 Vibration    14          0.952              1.043              0.459

 Optimization completed.
    -- Stationary point found.
 Normal termination of Gaussian 09 at Mon Jan 27 17:13:30 2020.
