 Gaussian 09, Revision D.01,
 Gaussian 09:  ES64L-G09RevD.01 24-Apr-2013

 -----------------------------
 # b3lyp 6-31G(2df,p) opt Freq
 -----------------------------

 -----
 titel
 -----
 Symbolic Z-matrix:
 Charge =  0 Multiplicity = 1

 SCF Done:  E(RB3LYP) =  -423.159176480     A.U. after   15 cycles
 Optimization completed.
    -- Stationary point found.
 Normal termination of Gaussian 09 at Tue Jan 28 08:20:31 2020.

 ----------------------------------------------------------------------
 #N Geom=AllCheck Guess=TCheck SCRF=Check GenChk RB3LYP/6-31G(2df,p) Fr
 eq
 ----------------------------------------------------------------------

 Structure from the checkpoint file:  "/scratch/puck/g09_c205794b-39ed-48fd-9e4c-f07e4fc53203/Gau-79821.chk"
 -----
 titel
 -----
 Charge =  0 Multiplicity = 1

                         Standard orientation:
 ---------------------------------------------------------------------
 Center     Atomic      Atomic             Coordinates (Angstroms)
 Number     Number       Type             X           Y           Z
 ---------------------------------------------------------------------
      1          6           0       -1.762175    0.487227    1.449847
      2          6           0       -1.101185    0.341864    0.069126
      3          6           0       -1.278036    1.630789   -0.775572
      4          6           0       -1.751297   -0.805428   -0.725538
      5          8           0       -2.706815   -1.434952   -0.362368
      6          6           0        0.322428    0.016865    0.184107
      7          6           0        1.487864   -0.279281    0.275416
      8          6           0        2.910483   -0.614485    0.348324
      9          8           0        3.745533    0.286751   -0.364295
     10          1           0       -1.640213   -0.425629    2.036278
     11          1           0       -1.311798    1.318563    1.997689
     12          1           0       -2.832783    0.672708    1.333570
     13          1           0       -0.863249    1.506832   -1.780217
     14          1           0       -2.339643    1.881480   -0.862599
     15          1           0       -0.758172    2.463258   -0.294889
     16          1           0       -1.253660   -1.004712   -1.701073
     17          1           0        3.250420   -0.574561    1.389104
     18          1           0        3.055979   -1.652410    0.008494
     19          1           0        3.414885    0.334773   -1.267308
 ---------------------------------------------------------------------

 SCF Done:  E(RB3LYP) =  -423.159176480     A.U. after    1 cycles

 The electronic state is 1-A.
 Alpha  occ. eigenvalues --  -19.14916 -19.14628 -10.27757 -10.25784 -10.23216
 Alpha  occ. eigenvalues --  -10.19803 -10.18892 -10.18553 -10.18419  -1.05710
 Alpha  occ. eigenvalues --   -1.02810  -0.83975  -0.76483  -0.70244  -0.69669
 Alpha  occ. eigenvalues --   -0.65579  -0.57590  -0.53335  -0.50954  -0.47843
 Alpha  occ. eigenvalues --   -0.46313  -0.45754  -0.44914  -0.42310  -0.40441
 Alpha  occ. eigenvalues --   -0.38783  -0.38226  -0.37521  -0.36093  -0.36017
 Alpha  occ. eigenvalues --   -0.29316  -0.28238  -0.26694  -0.24867
 Alpha virt. eigenvalues --   -0.03036   0.02419   0.05461   0.08887   0.09790
 Alpha virt. eigenvalues --    0.12497   0.12657   0.14035   0.14923   0.15622
 Alpha virt. eigenvalues --    0.17256   0.18867   0.18946   0.19399   0.21200

 Mulliken charges:
               1
     1  C   -0.402942
     2  C   -0.015912
     3  C   -0.413314
     4  C    0.161949
     5  O   -0.244382
     6  C    0.086583
     7  C    0.005916
     8  C   -0.195140
     9  O   -0.399292
    10  H    0.135219
    11  H    0.121248
    12  H    0.129006
    13  H    0.126068
    14  H    0.129799
    15  H    0.138642
    16  H    0.083531
    17  H    0.144533
    18  H    0.121202
    19  H    0.287287
 Sum of Mulliken charges =   0.00000

 Dipole moment (field-independent basis, Debye):
    X=              0.5765    Y=              0.9927    Z=             -0.9519  Tot=              1.4913
 Quadrupole moment (field-independent basis, Debye-Ang):
   XX=            -63.9148   YY=            -54.6885   ZZ=            -49.0199
   XY=             -9.0920   XZ=             -1.5815   YZ=             -0.8720

  Exact polarizability: 109.065  -3.596  68.728  -0.420  -1.073  68.770
 Approx polarizability: 159.608  -2.204 100.150  -0.176  -2.993  97.635

                      1                      2                      3
                      A                      A                      A
 Frequencies --     17.2680                57.8919                88.4624
 Red. masses --      3.1044                 6.3506                 3.6127
 Frc consts  --      0.0005                 0.0125                 0.0167
 IR Inten    --      2.8376                 4.6832                 0.6749

                      4                      5                      6
                      A                      A                      A
 Frequencies --    112.9810               183.5809               204.5335
 Red. masses --      2.6234                 2.3681                 1.2445
 Frc consts  --      0.0197                 0.0470                 0.0307
 IR Inten    --      0.2777                 1.6489                 0.8989

                      7                      8                      9
                      A                      A                      A
 Frequencies --    240.0818               253.6937               278.9297
 Red. masses --      1.1151                 2.1677                 2.8267
 Frc consts  --      0.0379                 0.0822                 0.1296
 IR Inten    --      1.2349                30.9462                11.5457

                     10                     11                     12
                      A                      A                      A
 Frequencies --    321.1775               325.9878               347.6633
 Red. masses --      1.7771                 2.3802                 1.9798
 Frc consts  --      0.1080                 0.1490                 0.1410
 IR Inten    --     37.2895                16.3999                48.2246

                     13                     14                     15
                      A                      A                      A
 Frequencies --    487.5214               495.6162               527.1437
 Red. masses --      5.9059                 4.7604                 4.9850
 Frc consts  --      0.8270                 0.6890                 0.8162
 IR Inten    --      0.8101                 8.5680                 9.0390

                     16                     17                     18
                      A                      A                      A
 Frequencies --    610.8822               724.2514               826.5733
 Red. masses --      5.7132                 3.2807                 2.9251
 Frc consts  --      1.2562                 1.0139                 1.1775
 IR Inten    --      3.9602                 9.4590                18.8513

                     19                     20                     21
                      A                      A                      A
 Frequencies --    901.2825               954.5470               980.2973
 Red. masses --      2.2878                 1.4131                 1.6085
 Frc consts  --      1.0949                 0.7586                 0.9107
 IR Inten    --     19.7496                 2.1860                42.0393

                     22                     23                     24
                      A                      A                      A
 Frequencies --   1013.1818              1035.5635              1043.2313
 Red. masses --      1.8063                 3.1023                 1.4678
 Frc consts  --      1.0925                 1.9602                 0.9412
 IR Inten    --     13.5229                41.5698                 0.4762

                     25                     26                     27
                      A                      A                      A
 Frequencies --   1082.9791              1166.0344              1212.3848
 Red. masses --      3.2436                 3.0351                 1.1679
 Frc consts  --      2.2414                 2.4314                 1.0114
 IR Inten    --     37.9341                 4.9233                12.6717

                     28                     29                     30
                      A                      A                      A
 Frequencies --   1228.6640              1262.2586              1360.2564
 Red. masses --      2.4053                 3.4429                 1.2208
 Frc consts  --      2.1394                 3.2320                 1.3309
 IR Inten    --      2.7858                26.3297                 5.5510

                     31                     32                     33
                      A                      A                      A
 Frequencies --   1392.2552              1404.5847              1416.6144
 Red. masses --      1.2005                 1.1766                 1.2295
 Frc consts  --      1.3710                 1.3677                 1.4538
 IR Inten    --      3.4987                 1.0606               100.1458

                     34                     35                     36
                      A                      A                      A
 Frequencies --   1425.4133              1477.6441              1481.9426
 Red. masses --      1.2137                 1.0462                 1.0469
 Frc consts  --      1.4529                 1.3459                 1.3546
 IR Inten    --      8.1458                 1.1478                 1.8646

                     37                     38                     39
                      A                      A                      A
 Frequencies --   1489.7115              1494.5939              1503.8604
 Red. masses --      1.0777                 1.0518                 1.0594
 Frc consts  --      1.4091                 1.3843                 1.4116
 IR Inten    --      0.7441                 6.3495                 5.9452

                     40                     41                     42
                      A                      A                      A
 Frequencies --   1837.7805              2348.3770              2883.1411
 Red. masses --     10.7332                11.8996                 1.0841
 Frc consts  --     21.3584                38.6651                 5.3096
 IR Inten    --    187.8241                 3.3166                91.4764

                     43                     44                     45
                      A                      A                      A
 Frequencies --   2977.5056              3039.5791              3054.4508
 Red. masses --      1.0713                 1.0335                 1.0343
 Frc consts  --      5.5957                 5.6260                 5.6852
 IR Inten    --     46.0902                18.3790                13.6130

                     46                     47                     48
                      A                      A                      A
 Frequencies --   3064.7328              3115.4636              3124.5109
 Red. masses --      1.0884                 1.1026                 1.1026
 Frc consts  --      6.0234                 6.3056                 6.3423
 IR Inten    --     15.1493                18.8773                 6.1634

                     49                     50                     51
                      A                      A                      A
 Frequencies --   3132.2017              3137.6769              3817.2191
 Red. masses --      1.1028                 1.1023                 1.0663
 Frc consts  --      6.3748                 6.3937                 9.1541
 IR Inten    --     20.2807                13.5986                19.0469

 - Thermochemistry -
 -------------------
 Temperature   298.150 Kelvin.  Pressure   1.00000 Atm.
 Atom     1 has atomic number  6 and mass  12.00000

 Molecular mass:   126.06808 amu.
 Principal axes and moments of inertia in atomic units:
                           1         2         3
     Eigenvalues --   599.781512495.024202621.98048
           X            0.99958  -0.02843  -0.00505
           Y            0.02815   0.99839  -0.04932
           Z            0.00644   0.04916   0.99877
 This molecule is an asymmetric top.
 Rotational symmetry number  1.
 Warning -- assumption of classical behavior for rotation
           may cause significant error
 Rotational temperatures (Kelvin)      0.14441     0.03471     0.03303
 Rotational constants (GHZ):           3.00900     0.72334     0.68831
 Zero-point vibrational energy     406516.1 (Joules/Mol)
                                   97.15967 (Kcal/Mol)
 Warning -- explicit consideration of  16 degrees of freedom as
           vibrations may cause significant error
 Vibrational temperatures:     24.84    83.29   127.28   162.55   264.13
          (Kelvin)            294.28   345.42   365.01   401.32   462.10
                              469.02   500.21   701.43   713.08   758.44
                              878.92  1042.03  1189.25  1296.74  1373.38
                             1410.43  1457.74  1489.94  1500.98  1558.16
                             1677.66  1744.35  1767.77  1816.11  1957.10
                             2003.14  2020.88  2038.19  2050.85  2126.00
                             2132.18  2143.36  2150.38  2163.72  2644.15
                             3378.79  4148.19  4283.96  4373.27  4394.67
                             4409.46  4482.45  4495.47  4506.53  4514.41
                             5492.12

 Zero-point correction=                           0.154834 (Hartree/Particle)
 Thermal correction to Energy=                    0.165958
 Thermal correction to Enthalpy=                  0.166902
 Thermal correction to Gibbs Free Energy=         0.116754
 Sum of electronic and zero-point Energies=           -423.004343
 Sum of electronic and thermal Energies=              -422.993219
 Sum of electronic and thermal Enthalpies=            -422.992275
 Sum of electronic and thermal Free Energies=         -423.042422

                     E (Thermal)             CV                S
                      KCal/Mol        Cal/Mol-Kelvin    Cal/Mol-Kelvin
 Total                  104.140             38.109            105.544
 Electronic               0.000              0.000              0.000
 Translational            0.889              2.981             40.409
 Rotational               0.889              2.981             29.752
 Vibrational            102.362             32.147             35.384
 Vibration     1          0.593              1.986              6.926
 Vibration     2          0.596              1.974              4.528
 Vibration     3          0.601              1.957              3.694
 Vibration     4          0.607              1.939              3.217
 Vibration     5          0.631              1.862              2.292
 Vibration     6          0.640              1.833              2.092
 Vibration     7          0.657              1.779              1.802
 Vibration     8          0.665              1.757              1.705
 Vibration     9          0.679              1.713              1.540
 Vibration    10          0.707              1.633              1.304
 Vibration    11          0.710              1.624              1.280
 Vibration    12          0.725              1.580              1.177
 Vibration    13          0.843              1.278              0.690
 Vibration    14          0.851              1.260              0.669
 Vibration    15          0.882              1.190              0.594
 Vibration    16          0.970              1.009              0.431

 Optimization completed.
    -- Stationary point found.
 Normal termination of Gaussian 09 at Tue Jan 28 09:12:19 2020.
