 Gaussian 09, Revision D.01,
 Gaussian 09:  ES64L-G09RevD.01 24-Apr-2013

 -----------------------------
 # b3lyp 6-31G(2df,p) opt Freq
 -----------------------------

 -----
 titel
 -----
 Symbolic Z-matrix:
 Charge =  0 Multiplicity = 1

 SCF Done:  E(RB3LYP) =  -423.153781457     A.U. after   13 cycles
 Optimization completed.
    -- Stationary point found.
 Normal termination of Gaussian 09 at Mon Jan 27 11:15:52 2020.

 ----------------------------------------------------------------------
 #N Geom=AllCheck Guess=TCheck SCRF=Check GenChk RB3LYP/6-31G(2df,p) Fr
 eq
 ----------------------------------------------------------------------

 Structure from the checkpoint file:  "/scratch/puck/g09_cc377383-6fcb-4410-82eb-c031bb6890fc/Gau-68545.chk"
 -----
 titel
 -----
 Charge =  0 Multiplicity = 1

                         Standard orientation:
 ---------------------------------------------------------------------
 Center     Atomic      Atomic             Coordinates (Angstroms)
 Number     Number       Type             X           Y           Z
 ---------------------------------------------------------------------
      1          6           0        0.605949   -0.304186    1.338638
      2          6           0        1.177216   -1.064669    0.132263
      3          8           0        2.105388   -0.093266   -0.427873
      4          6           0        1.341299    1.146174   -0.407418
      5          6           0        0.044841    0.577772    0.152738
      6          8           0       -1.156754    1.259561    0.218445
      7          6           0       -2.207783    0.301881   -0.044024
      8          6           0       -1.552421   -1.094047   -0.307734
      9          6           0       -0.107278   -0.727276   -0.668722
     10          1           0       -0.174116   -0.827674    1.888888
     11          1           0        1.329027    0.145553    2.021480
     12          1           0        1.665205   -2.036014    0.173015
     13          1           0        1.839010    1.884444    0.230524
     14          1           0        1.236406    1.547649   -1.421048
     15          1           0       -2.891250    0.280136    0.811575
     16          1           0       -2.768509    0.654294   -0.917376
     17          1           0       -1.623347   -1.726202    0.580200
     18          1           0       -2.061206   -1.619463   -1.118698
     19          1           0        0.048764   -0.646975   -1.747581
 ---------------------------------------------------------------------

 SCF Done:  E(RB3LYP) =  -423.153781457     A.U. after    1 cycles

 The electronic state is 1-A.
 Alpha  occ. eigenvalues --  -19.14725 -19.13371 -10.23986 -10.23870 -10.23573
 Alpha  occ. eigenvalues --  -10.22525 -10.19627 -10.18653 -10.17979  -1.05256
 Alpha  occ. eigenvalues --   -1.02698  -0.83197  -0.76604  -0.71764  -0.67055
 Alpha  occ. eigenvalues --   -0.62256  -0.56949  -0.54938  -0.50810  -0.49650
 Alpha  occ. eigenvalues --   -0.47264  -0.45378  -0.44185  -0.40401  -0.39656
 Alpha  occ. eigenvalues --   -0.38355  -0.37465  -0.36196  -0.34750  -0.32785
 Alpha  occ. eigenvalues --   -0.32415  -0.28374  -0.24985  -0.23929
 Alpha virt. eigenvalues --    0.07717   0.09062   0.09470   0.11758   0.12273
 Alpha virt. eigenvalues --    0.14088   0.14598   0.15426   0.16046   0.17154
 Alpha virt. eigenvalues --    0.18791   0.19357   0.20319   0.20898   0.22066

 Mulliken charges:
               1
     1  C   -0.309143
     2  C    0.062350
     3  O   -0.287226
     4  C   -0.145047
     5  C    0.404475
     6  O   -0.323792
     7  C   -0.083670
     8  C   -0.314425
     9  C   -0.026549
    10  H    0.103256
    11  H    0.101448
    12  H    0.081204
    13  H    0.104135
    14  H    0.104989
    15  H    0.110052
    16  H    0.110568
    17  H    0.115642
    18  H    0.110766
    19  H    0.080967
 Sum of Mulliken charges =   0.00000

 Dipole moment (field-independent basis, Debye):
    X=             -1.6948    Y=             -1.1563    Z=              0.1225  Tot=              2.0553
 Quadrupole moment (field-independent basis, Debye-Ang):
   XX=            -55.2776   YY=            -53.3083   ZZ=            -51.9801
   XY=              2.9864   XZ=              2.0913   YZ=             -1.1835

  Exact polarizability:  82.446   3.023  70.017   2.188  -1.567  68.272
 Approx polarizability: 113.450   1.821 106.485   1.096  -1.238 103.840

                      1                      2                      3
                      A                      A                      A
 Frequencies --     27.8631               276.3375               345.2923
 Red. masses --      2.1541                 2.6253                 3.9566
 Frc consts  --      0.0010                 0.1181                 0.2779
 IR Inten    --      0.9760                 1.9666                 6.6665

                      4                      5                      6
                      A                      A                      A
 Frequencies --    359.7144               443.6131               468.5224
 Red. masses --      3.2116                 2.8526                 2.6938
 Frc consts  --      0.2448                 0.3308                 0.3484
 IR Inten    --      2.9968                 1.0823                 0.7894

                      7                      8                      9
                      A                      A                      A
 Frequencies --    536.2678               631.5695               684.1843
 Red. masses --      3.3412                 2.6248                 3.1311
 Frc consts  --      0.5661                 0.6169                 0.8636
 IR Inten    --      0.4138                 3.4107                 1.1326

                     10                     11                     12
                      A                      A                      A
 Frequencies --    714.9969               805.9752               844.2555
 Red. masses --      4.7491                 2.2856                 2.5924
 Frc consts  --      1.4304                 0.8748                 1.0887
 IR Inten    --      7.7238                 0.7139                 9.8320

                     13                     14                     15
                      A                      A                      A
 Frequencies --    866.0584               886.9845               897.4677
 Red. masses --      2.0078                 3.3497                 2.6075
 Frc consts  --      0.8873                 1.5527                 1.2374
 IR Inten    --      2.1994                26.0536                 6.9735

                     16                     17                     18
                      A                      A                      A
 Frequencies --    925.2554               948.3337               958.8035
 Red. masses --      2.6907                 2.2069                 3.7118
 Frc consts  --      1.3572                 1.1694                 2.0104
 IR Inten    --      0.1923                13.0155                62.4396

                     19                     20                     21
                      A                      A                      A
 Frequencies --    992.0435              1005.0817              1047.2749
 Red. masses --      2.0066                 3.6360                 1.4617
 Frc consts  --      1.1635                 2.1641                 0.9446
 IR Inten    --     14.2243                51.6003                 7.1392

                     22                     23                     24
                      A                      A                      A
 Frequencies --   1070.4951              1088.7263              1125.0864
 Red. masses --      2.2933                 1.8656                 2.0422
 Frc consts  --      1.5484                 1.3029                 1.5231
 IR Inten    --      2.2103                 4.5711                 5.8011

                     25                     26                     27
                      A                      A                      A
 Frequencies --   1144.2705              1179.4645              1192.2817
 Red. masses --      1.4162                 2.0346                 1.3673
 Frc consts  --      1.0925                 1.6676                 1.1452
 IR Inten    --      1.4710                 5.7444                 3.2595

                     28                     29                     30
                      A                      A                      A
 Frequencies --   1209.1003              1221.9542              1242.6744
 Red. masses --      1.2264                 1.5740                 1.4481
 Frc consts  --      1.0563                 1.3848                 1.3175
 IR Inten    --      2.6643                34.4174                32.9215

                     31                     32                     33
                      A                      A                      A
 Frequencies --   1248.9841              1268.8475              1285.1094
 Red. masses --      1.6563                 1.5261                 1.6313
 Frc consts  --      1.5223                 1.4476                 1.5873
 IR Inten    --     27.6525                 7.2732                44.9899

                     34                     35                     36
                      A                      A                      A
 Frequencies --   1300.7032              1349.5726              1366.4397
 Red. masses --      1.5309                 1.4854                 1.4821
 Frc consts  --      1.5260                 1.5939                 1.6305
 IR Inten    --      8.8339                 1.7163                 0.7778

                     37                     38                     39
                      A                      A                      A
 Frequencies --   1404.9693              1480.6651              1508.7615
 Red. masses --      1.7019                 1.1244                 1.0989
 Frc consts  --      1.9793                 1.4524                 1.4739
 IR Inten    --     29.2222                 5.7225                 5.7278

                     40                     41                     42
                      A                      A                      A
 Frequencies --   1524.5771              1533.2709              3031.7268
 Red. masses --      1.0972                 1.1100                 1.0571
 Frc consts  --      1.5025                 1.5374                 5.7246
 IR Inten    --      0.4299                 2.4026                67.4690

                     43                     44                     45
                      A                      A                      A
 Frequencies --   3032.6807              3066.6309              3073.4985
 Red. masses --      1.0561                 1.0951                 1.0842
 Frc consts  --      5.7226                 6.0679                 6.0345
 IR Inten    --     61.0818                18.8390                19.4646

                     46                     47                     48
                      A                      A                      A
 Frequencies --   3075.4370              3078.7241              3086.2811
 Red. masses --      1.0780                 1.1069                 1.0612
 Frc consts  --      6.0072                 6.1818                 5.9555
 IR Inten    --     17.4055                39.9515                16.8291

                     49                     50                     51
                      A                      A                      A
 Frequencies --   3117.6302              3146.1489              3156.9468
 Red. masses --      1.1051                 1.0929                 1.1066
 Frc consts  --      6.3283                 6.3736                 6.4978
 IR Inten    --     41.1707                39.3765                21.2119

 - Thermochemistry -
 -------------------
 Temperature   298.150 Kelvin.  Pressure   1.00000 Atm.
 Atom     1 has atomic number  6 and mass  12.00000

 Molecular mass:   126.06808 amu.
 Principal axes and moments of inertia in atomic units:
                           1         2         3
     Eigenvalues --   532.763131090.735761265.49236
           X            0.99921   0.03788   0.01237
           Y           -0.03743   0.99867  -0.03541
           Z           -0.01370   0.03492   0.99930
 This molecule is an asymmetric top.
 Rotational symmetry number  1.
 Warning -- assumption of classical behavior for rotation
           may cause significant error
 Rotational temperatures (Kelvin)      0.16257     0.07941     0.06844
 Rotational constants (GHZ):           3.38751     1.65461     1.42612
 Zero-point vibrational energy     426334.4 (Joules/Mol)
                                  101.89638 (Kcal/Mol)
 Warning -- explicit consideration of   7 degrees of freedom as
           vibrations may cause significant error
 Vibrational temperatures:     40.09   397.59   496.80   517.55   638.26
          (Kelvin)            674.10   771.57   908.69   984.39  1028.72
                             1159.62  1214.69  1246.06  1276.17  1291.25
                             1331.23  1364.44  1379.50  1427.33  1446.09
                             1506.79  1540.20  1566.43  1618.75  1646.35
                             1696.98  1715.43  1739.62  1758.12  1787.93
                             1797.01  1825.59  1848.98  1871.42  1941.73
                             1966.00  2021.43  2130.34  2170.77  2193.52
                             2206.03  4361.97  4363.35  4412.19  4422.07
                             4424.86  4429.59  4440.46  4485.57  4526.60
                             4542.14

 Zero-point correction=                           0.162382 (Hartree/Particle)
 Thermal correction to Energy=                    0.169180
 Thermal correction to Enthalpy=                  0.170124
 Thermal correction to Gibbs Free Energy=         0.130406
 Sum of electronic and zero-point Energies=           -422.991399
 Sum of electronic and thermal Energies=              -422.984601
 Sum of electronic and thermal Enthalpies=            -422.983657
 Sum of electronic and thermal Free Energies=         -423.023376

                     E (Thermal)             CV                S
                      KCal/Mol        Cal/Mol-Kelvin    Cal/Mol-Kelvin
 Total                  106.162             27.876             83.595
 Electronic               0.000              0.000              0.000
 Translational            0.889              2.981             40.409
 Rotational               0.889              2.981             28.088
 Vibrational            104.385             21.914             15.099
 Vibration     1          0.593              1.984              5.976
 Vibration     2          0.678              1.717              1.556
 Vibration     3          0.724              1.585              1.188
 Vibration     4          0.734              1.555              1.123
 Vibration     5          0.803              1.375              0.815
 Vibration     6          0.826              1.320              0.742
 Vibration     7          0.891              1.170              0.573

 Optimization completed.
    -- Stationary point found.
 Normal termination of Gaussian 09 at Mon Jan 27 12:05:59 2020.
