 Gaussian 09, Revision D.01,
 Gaussian 09:  ES64L-G09RevD.01 24-Apr-2013

 -----------------------------
 # b3lyp 6-31G(2df,p) opt Freq
 -----------------------------

 -----
 titel
 -----
 Symbolic Z-matrix:
 Charge =  0 Multiplicity = 1

 SCF Done:  E(RB3LYP) =  -423.182921103     A.U. after   14 cycles
 Optimization completed.
    -- Stationary point found.
 Normal termination of Gaussian 09 at Tue Jan 28 00:07:39 2020.

 ----------------------------------------------------------------------
 #N Geom=AllCheck Guess=TCheck SCRF=Check GenChk RB3LYP/6-31G(2df,p) Fr
 eq
 ----------------------------------------------------------------------

 Structure from the checkpoint file:  "/scratch/puck/g09_059cf297-cec2-4ada-84ab-0ddcb86c7c64/Gau-56655.chk"
 -----
 titel
 -----
 Charge =  0 Multiplicity = 1

                         Standard orientation:
 ---------------------------------------------------------------------
 Center     Atomic      Atomic             Coordinates (Angstroms)
 Number     Number       Type             X           Y           Z
 ---------------------------------------------------------------------
      1          6           0        2.208305   -0.566665    0.077709
      2          6           0        0.703997   -0.393738    0.124422
      3          6           0       -0.155398   -1.586695   -0.386906
      4          8           0       -1.450265   -1.020842   -0.639298
      5          6           0       -1.350484    0.384545   -0.290451
      6          6           0       -1.159068    0.468127    1.215873
      7          6           0        0.070563   -0.007930    1.457216
      8          6           0        0.073843    0.715139   -0.786777
      9          8           0        0.551508    2.016814   -0.585586
     10          1           0        2.705803    0.384556    0.290788
     11          1           0        2.554746   -1.304423    0.809561
     12          1           0        2.535857   -0.899208   -0.913060
     13          1           0        0.252748   -1.993595   -1.321674
     14          1           0       -0.234589   -2.399074    0.345733
     15          1           0       -2.194321    0.908415   -0.735218
     16          1           0       -1.920242    0.736748    1.937028
     17          1           0        0.525505   -0.200755    2.422167
     18          1           0        0.191421    0.502067   -1.852705
     19          1           0        0.422572    2.220796    0.349939
 ---------------------------------------------------------------------

 SCF Done:  E(RB3LYP) =  -423.182921103     A.U. after    1 cycles

 The electronic state is 1-A.
 Alpha  occ. eigenvalues --  -19.13928 -19.13619 -10.23199 -10.23167 -10.22679
 Alpha  occ. eigenvalues --  -10.20150 -10.19354 -10.18863 -10.18118  -1.04007
 Alpha  occ. eigenvalues --   -1.01861  -0.83983  -0.76737  -0.70898  -0.68581
 Alpha  occ. eigenvalues --   -0.61334  -0.58558  -0.53974  -0.50759  -0.49955
 Alpha  occ. eigenvalues --   -0.47250  -0.43966  -0.41914  -0.40695  -0.40593
 Alpha  occ. eigenvalues --   -0.40066  -0.37843  -0.36524  -0.34800  -0.33121
 Alpha  occ. eigenvalues --   -0.31153  -0.27434  -0.26365  -0.23436
 Alpha virt. eigenvalues --   -0.00444   0.08671   0.10296   0.11642   0.13175
 Alpha virt. eigenvalues --    0.13618   0.14452   0.14514   0.16182   0.17381
 Alpha virt. eigenvalues --    0.17591   0.18863   0.20054   0.21093   0.22742

 Mulliken charges:
               1
     1  C   -0.497975
     2  C    0.209487
     3  C   -0.096194
     4  O   -0.276155
     5  C    0.021923
     6  C   -0.116642
     7  C   -0.135165
     8  C    0.125128
     9  O   -0.449020
    10  H    0.129224
    11  H    0.115834
    12  H    0.118612
    13  H    0.099718
    14  H    0.097619
    15  H    0.078568
    16  H    0.107161
    17  H    0.101617
    18  H    0.091495
    19  H    0.274767
 Sum of Mulliken charges =   0.00000

 Dipole moment (field-independent basis, Debye):
    X=              0.7271    Y=             -0.2590    Z=              1.6337  Tot=              1.8069
 Quadrupole moment (field-independent basis, Debye-Ang):
   XX=            -54.3742   YY=            -55.4495   ZZ=            -51.3569
   XY=             -4.9319   XZ=             -0.4945   YZ=              2.4086

  Exact polarizability:  79.443  -6.736  71.744  -0.299   2.137  72.359
 Approx polarizability: 121.272  -9.839 109.016   3.577   3.189 110.429

                      1                      2                      3
                      A                      A                      A
 Frequencies --    188.8481               222.8897               233.9136
 Red. masses --      1.1466                 2.7812                 2.7085
 Frc consts  --      0.0241                 0.0814                 0.0873
 IR Inten    --      0.4625                 1.2636                 1.3391

                      4                      5                      6
                      A                      A                      A
 Frequencies --    282.3749               332.5392               362.1577
 Red. masses --      3.4027                 2.4668                 2.2579
 Frc consts  --      0.1599                 0.1607                 0.1745
 IR Inten    --      3.9467                 2.2594                 2.4969

                      7                      8                      9
                      A                      A                      A
 Frequencies --    404.6200               454.0605               499.8775
 Red. masses --      2.8766                 1.3230                 3.4231
 Frc consts  --      0.2775                 0.1607                 0.5040
 IR Inten    --      7.6474                56.6571                 3.9247

                     10                     11                     12
                      A                      A                      A
 Frequencies --    568.6178               620.0253               703.8921
 Red. masses --      4.1981                 3.6829                 4.7622
 Frc consts  --      0.7997                 0.8342                 1.3902
 IR Inten    --      3.7339                 2.1363                 6.1069

                     13                     14                     15
                      A                      A                      A
 Frequencies --    762.1875               783.2221               822.6529
 Red. masses --      1.6439                 3.4946                 4.0169
 Frc consts  --      0.5627                 1.2630                 1.6017
 IR Inten    --     22.0978                 5.2952                14.6384

                     16                     17                     18
                      A                      A                      A
 Frequencies --    877.1070               904.8767               912.5287
 Red. masses --      2.2747                 3.0477                 2.1046
 Frc consts  --      1.0311                 1.4703                 1.0326
 IR Inten    --     14.4900                21.3423                 7.8901

                     19                     20                     21
                      A                      A                      A
 Frequencies --    943.0243               960.4615               995.2777
 Red. masses --      1.8173                 1.8388                 3.6516
 Frc consts  --      0.9522                 0.9994                 2.1312
 IR Inten    --      5.1260                 3.9363                44.7666

                     22                     23                     24
                      A                      A                      A
 Frequencies --   1002.7111              1022.3482              1086.9561
 Red. masses --      1.8843                 1.6656                 1.1717
 Frc consts  --      1.1162                 1.0257                 0.8156
 IR Inten    --      2.5830                34.9783                 4.2039

                     25                     26                     27
                      A                      A                      A
 Frequencies --   1135.4155              1163.1906              1173.7377
 Red. masses --      2.8485                 1.8636                 1.9323
 Frc consts  --      2.1636                 1.4856                 1.5684
 IR Inten    --    111.8275                 6.9446                 6.0341

                     28                     29                     30
                      A                      A                      A
 Frequencies --   1206.4836              1237.8219              1254.5334
 Red. masses --      1.6631                 1.9839                 1.5527
 Frc consts  --      1.4263                 1.7910                 1.4398
 IR Inten    --      8.7395                 0.3302                 3.0905

                     31                     32                     33
                      A                      A                      A
 Frequencies --   1272.2337              1278.8567              1308.0473
 Red. masses --      1.8153                 1.3388                 1.4626
 Frc consts  --      1.7311                 1.2900                 1.4745
 IR Inten    --      1.2736                 6.6213                12.5175

                     34                     35                     36
                      A                      A                      A
 Frequencies --   1351.3010              1379.6560              1413.0105
 Red. masses --      1.5238                 1.7764                 1.2840
 Frc consts  --      1.6394                 1.9922                 1.5104
 IR Inten    --     13.0419                 5.7735                 4.2557

                     37                     38                     39
                      A                      A                      A
 Frequencies --   1440.6091              1492.4398              1495.2815
 Red. masses --      1.2485                 1.0504                 1.0503
 Frc consts  --      1.5267                 1.3785                 1.3836
 IR Inten    --     70.2223                 4.8289                 7.8297

                     40                     41                     42
                      A                      A                      A
 Frequencies --   1522.1451              1624.0252              3007.2482
 Red. masses --      1.0912                 5.9249                 1.0562
 Frc consts  --      1.4896                 9.2070                 5.6278
 IR Inten    --      0.6741                 2.0740                54.1993

                     43                     44                     45
                      A                      A                      A
 Frequencies --   3030.9177              3048.6253              3087.1503
 Red. masses --      1.0357                 1.1090                 1.0867
 Frc consts  --      5.6056                 6.0729                 6.1023
 IR Inten    --     31.4562                32.3903                23.2957

                     46                     47                     48
                      A                      A                      A
 Frequencies --   3095.5678              3105.5413              3143.9404
 Red. masses --      1.1010                 1.1008                 1.0906
 Frc consts  --      6.2161                 6.2550                 6.3511
 IR Inten    --     25.5543                16.0163                28.5760

                     49                     50                     51
                      A                      A                      A
 Frequencies --   3190.1366              3221.4493              3763.0800
 Red. masses --      1.0876                 1.1045                 1.0642
 Frc consts  --      6.5216                 6.7534                 8.8785
 IR Inten    --      6.4744                11.9113                16.9560

 - Thermochemistry -
 -------------------
 Temperature   298.150 Kelvin.  Pressure   1.00000 Atm.
 Atom     1 has atomic number  6 and mass  12.00000

 Molecular mass:   126.06808 amu.
 Principal axes and moments of inertia in atomic units:
                           1         2         3
     Eigenvalues --   815.55811 913.168771136.26541
           X            0.96429  -0.26457  -0.01202
           Y            0.26481   0.96387   0.02872
           Z            0.00398  -0.03087   0.99952
 This molecule is an asymmetric top.
 Rotational symmetry number  1.
 Warning -- assumption of classical behavior for rotation
           may cause significant error
 Rotational temperatures (Kelvin)      0.10620     0.09485     0.07623
 Rotational constants (GHZ):           2.21289     1.97635     1.58831
 Zero-point vibrational energy     421023.4 (Joules/Mol)
                                  100.62701 (Kcal/Mol)
 Warning -- explicit consideration of  11 degrees of freedom as
           vibrations may cause significant error
 Vibrational temperatures:    271.71   320.69   336.55   406.27   478.45
          (Kelvin)            521.06   582.16   653.29   719.21   818.11
                              892.08  1012.74  1096.62  1126.88  1183.61
                             1261.96  1301.91  1312.92  1356.80  1381.89
                             1431.98  1442.68  1470.93  1563.89  1633.61
                             1673.57  1688.74  1735.86  1780.95  1804.99
                             1830.46  1839.99  1881.99  1944.22  1985.01
                             2033.00  2072.71  2147.29  2151.37  2190.02
                             2336.61  4326.75  4360.81  4386.29  4441.72
                             4453.83  4468.18  4523.42  4589.89  4634.94
                             5414.23

 Zero-point correction=                           0.160359 (Hartree/Particle)
 Thermal correction to Energy=                    0.168024
 Thermal correction to Enthalpy=                  0.168968
 Thermal correction to Gibbs Free Energy=         0.128938
 Sum of electronic and zero-point Energies=           -423.022562
 Sum of electronic and thermal Energies=              -423.014897
 Sum of electronic and thermal Enthalpies=            -423.013953
 Sum of electronic and thermal Free Energies=         -423.053983

                     E (Thermal)             CV                S
                      KCal/Mol        Cal/Mol-Kelvin    Cal/Mol-Kelvin
 Total                  105.437             31.463             84.252
 Electronic               0.000              0.000              0.000
 Translational            0.889              2.981             40.409
 Rotational               0.889              2.981             28.228
 Vibrational            103.659             25.501             15.616
 Vibration     1          0.633              1.855              2.239
 Vibration     2          0.649              1.806              1.935
 Vibration     3          0.654              1.789              1.849
 Vibration     4          0.681              1.706              1.519
 Vibration     5          0.714              1.611              1.248
 Vibration     6          0.736              1.550              1.113
 Vibration     7          0.770              1.460              0.946
 Vibration     8          0.813              1.352              0.784
 Vibration     9          0.855              1.250              0.658
 Vibration    10          0.925              1.099              0.507
 Vibration    11          0.980              0.990              0.416

 Optimization completed.
    -- Stationary point found.
 Normal termination of Gaussian 09 at Tue Jan 28 01:33:11 2020.
