 Gaussian 09, Revision D.01,
 Gaussian 09:  ES64L-G09RevD.01 24-Apr-2013

 -----------------------------
 # b3lyp 6-31G(2df,p) opt Freq
 -----------------------------

 -----
 titel
 -----
 Symbolic Z-matrix:
 Charge =  0 Multiplicity = 1

 SCF Done:  E(RB3LYP) =  -423.176794761     A.U. after   14 cycles
 Optimization completed.
    -- Stationary point found.
 Normal termination of Gaussian 09 at Tue Jan 28 02:24:15 2020.

 ----------------------------------------------------------------------
 #N Geom=AllCheck Guess=TCheck SCRF=Check GenChk RB3LYP/6-31G(2df,p) Fr
 eq
 ----------------------------------------------------------------------

 Structure from the checkpoint file:  "/scratch/puck/g09_91de9c0f-206f-44d5-8e83-520b2c51ce2d/Gau-76318.chk"
 -----
 titel
 -----
 Charge =  0 Multiplicity = 1

                         Standard orientation:
 ---------------------------------------------------------------------
 Center     Atomic      Atomic             Coordinates (Angstroms)
 Number     Number       Type             X           Y           Z
 ---------------------------------------------------------------------
      1          6           0       -0.338319    2.286444   -0.691576
      2          6           0       -0.167825    0.982820    0.058695
      3          6           0        1.146067    0.745769    0.847747
      4          6           0        1.224569   -0.711630    0.314427
      5          8           0        2.426955   -1.130721   -0.271966
      6          6           0        0.013887   -0.418965   -0.658901
      7          6           0       -1.315598   -0.862932   -0.064746
      8          8           0       -2.028414   -1.810971   -0.230584
      9          6           0       -1.444612    0.425265    0.773128
     10          1           0        0.533635    2.504522   -1.317894
     11          1           0       -1.219091    2.260367   -1.343047
     12          1           0       -0.465005    3.125685    0.002854
     13          1           0        1.972163    1.342198    0.443384
     14          1           0        1.123434    0.888234    1.932069
     15          1           0        0.992267   -1.475090    1.061288
     16          1           0        2.693695   -0.473678   -0.924171
     17          1           0        0.214356   -0.580160   -1.719804
     18          1           0       -2.365556    0.976132    0.556534
     19          1           0       -1.377231    0.284693    1.856544
 ---------------------------------------------------------------------

 SCF Done:  E(RB3LYP) =  -423.176794761     A.U. after    1 cycles

 The electronic state is 1-A.
 Alpha  occ. eigenvalues --  -19.15005 -19.13370 -10.26759 -10.24864 -10.21054
 Alpha  occ. eigenvalues --  -10.19278 -10.19099 -10.19098 -10.18848  -1.04274
 Alpha  occ. eigenvalues --   -1.03395  -0.88181  -0.74806  -0.73514  -0.67661
 Alpha  occ. eigenvalues --   -0.62721  -0.55484  -0.52987  -0.51149  -0.48237
 Alpha  occ. eigenvalues --   -0.46241  -0.44581  -0.42702  -0.41625  -0.41191
 Alpha  occ. eigenvalues --   -0.40189  -0.39004  -0.38135  -0.35728  -0.33059
 Alpha  occ. eigenvalues --   -0.31002  -0.28895  -0.27777  -0.23616
 Alpha virt. eigenvalues --   -0.02111   0.06048   0.08249   0.09013   0.11011
 Alpha virt. eigenvalues --    0.12806   0.13806   0.14452   0.15215   0.16543
 Alpha virt. eigenvalues --    0.16888   0.17822   0.18416   0.20267   0.21070

 Mulliken charges:
               1
     1  C   -0.487044
     2  C    0.355781
     3  C   -0.326287
     4  C    0.162885
     5  O   -0.424266
     6  C   -0.266770
     7  C    0.424357
     8  O   -0.304880
     9  C   -0.418201
    10  H    0.112353
    11  H    0.121043
    12  H    0.123937
    13  H    0.095256
    14  H    0.104220
    15  H    0.106291
    16  H    0.279932
    17  H    0.083844
    18  H    0.131968
    19  H    0.125581
 Sum of Mulliken charges =   0.00000

 Dipole moment (field-independent basis, Debye):
    X=              1.2722    Y=              3.5655    Z=             -0.0067  Tot=              3.7857
 Quadrupole moment (field-independent basis, Debye-Ang):
   XX=            -58.3372   YY=            -59.4682   ZZ=            -50.0643
   XY=             -2.0798   XZ=             -2.9740   YZ=             -1.4940

  Exact polarizability:  82.859   2.566  78.261  -2.193   1.333  67.232
 Approx polarizability: 119.623   7.828 114.407  -3.166   4.004 102.591

                      1                      2                      3
                      A                      A                      A
 Frequencies --     51.9746               113.4652               227.1391
 Red. masses --      3.1573                 5.4512                 1.0753
 Frc consts  --      0.0050                 0.0413                 0.0327
 IR Inten    --      2.0238                 2.6595                 0.2802

                      4                      5                      6
                      A                      A                      A
 Frequencies --    252.7200               286.9673               325.2463
 Red. masses --      3.2034                 1.5859                 2.1707
 Frc consts  --      0.1205                 0.0769                 0.1353
 IR Inten    --      1.9514                21.0036                 0.4212

                      7                      8                      9
                      A                      A                      A
 Frequencies --    337.7131               371.4750               437.8806
 Red. masses --      1.6524                 2.5945                 2.6278
 Frc consts  --      0.1110                 0.2109                 0.2969
 IR Inten    --     36.2958                37.1137                 5.8117

                     10                     11                     12
                      A                      A                      A
 Frequencies --    449.2519               515.4698               598.1814
 Red. masses --      3.9075                 2.2616                 3.5120
 Frc consts  --      0.4647                 0.3541                 0.7404
 IR Inten    --      6.7216                 2.6217                 0.3111

                     13                     14                     15
                      A                      A                      A
 Frequencies --    600.7652               750.1931               817.2120
 Red. masses --      3.1915                 2.3616                 2.3787
 Frc consts  --      0.6787                 0.7831                 0.9360
 IR Inten    --      1.3596                 1.2099                 4.8582

                     16                     17                     18
                      A                      A                      A
 Frequencies --    826.9085               879.0109               924.0224
 Red. masses --      2.4923                 2.0145                 3.0923
 Frc consts  --      1.0041                 0.9171                 1.5556
 IR Inten    --      3.1178                 4.5471                 1.6750

                     19                     20                     21
                      A                      A                      A
 Frequencies --    943.9579               958.1435               988.1391
 Red. masses --      2.7207                 1.8283                 2.0049
 Frc consts  --      1.4283                 0.9889                 1.1534
 IR Inten    --     22.9583                 3.8813                 2.7398

                     22                     23                     24
                      A                      A                      A
 Frequencies --   1038.6510              1060.7034              1079.6486
 Red. masses --      1.7400                 1.8634                 2.2357
 Frc consts  --      1.1059                 1.2352                 1.5354
 IR Inten    --     16.8815                 3.1593                41.3262

                     25                     26                     27
                      A                      A                      A
 Frequencies --   1118.9580              1130.3477              1162.2660
 Red. masses --      1.5654                 1.8373                 1.8903
 Frc consts  --      1.1548                 1.3831                 1.5045
 IR Inten    --     91.5733                73.0560                30.6429

                     28                     29                     30
                      A                      A                      A
 Frequencies --   1166.3733              1218.4801              1233.3390
 Red. masses --      1.8138                 1.7489                 1.9254
 Frc consts  --      1.4539                 1.5299                 1.7256
 IR Inten    --     33.4395                 2.4709                 0.4935

                     31                     32                     33
                      A                      A                      A
 Frequencies --   1245.5698              1270.2973              1322.0358
 Red. masses --      1.6045                 1.5829                 2.4024
 Frc consts  --      1.4666                 1.5050                 2.4739
 IR Inten    --     15.9162                 6.1826                 7.9408

                     34                     35                     36
                      A                      A                      A
 Frequencies --   1328.3519              1414.5586              1435.2063
 Red. masses --      1.6507                 1.2736                 1.1113
 Frc consts  --      1.7161                 1.5015                 1.3487
 IR Inten    --      5.4106                 2.1164                 1.9479

                     37                     38                     39
                      A                      A                      A
 Frequencies --   1443.7936              1477.8799              1492.9362
 Red. masses --      1.1938                 1.1089                 1.0525
 Frc consts  --      1.4663                 1.4270                 1.3822
 IR Inten    --     67.9221                 3.5515                 3.2265

                     40                     41                     42
                      A                      A                      A
 Frequencies --   1494.2857              1881.3693              3020.5469
 Red. masses --      1.0496                12.5715                 1.0358
 Frc consts  --      1.3808                26.2171                 5.5680
 IR Inten    --      2.8765               305.1536                25.6129

                     43                     44                     45
                      A                      A                      A
 Frequencies --   3035.4876              3049.6201              3074.9476
 Red. masses --      1.0605                 1.0590                 1.0893
 Frc consts  --      5.7571                 5.8029                 6.0685
 IR Inten    --     32.2791                 9.2401                10.4547

                     46                     47                     48
                      A                      A                      A
 Frequencies --   3085.1055              3090.6673              3095.5579
 Red. masses --      1.1005                 1.1017                 1.1026
 Frc consts  --      6.1715                 6.2004                 6.2248
 IR Inten    --     17.5811                18.5254                31.9964

                     49                     50                     51
                      A                      A                      A
 Frequencies --   3102.0133              3103.6398              3801.9320
 Red. masses --      1.1016                 1.0924                 1.0659
 Frc consts  --      6.2452                 6.1996                 9.0776
 IR Inten    --     23.5964                 7.0309                16.1048

 - Thermochemistry -
 -------------------
 Temperature   298.150 Kelvin.  Pressure   1.00000 Atm.
 Atom     1 has atomic number  6 and mass  12.00000

 Molecular mass:   126.06808 amu.
 Principal axes and moments of inertia in atomic units:
                           1         2         3
     Eigenvalues --   879.605881110.563301659.65976
           X            0.99739  -0.07188  -0.00729
           Y            0.07173   0.99724  -0.01931
           Z            0.00866   0.01874   0.99979
 This molecule is an asymmetric top.
 Rotational symmetry number  1.
 Warning -- assumption of classical behavior for rotation
           may cause significant error
 Rotational temperatures (Kelvin)      0.09847     0.07799     0.05219
 Rotational constants (GHZ):           2.05176     1.62507     1.08742
 Zero-point vibrational energy     413491.7 (Joules/Mol)
                                   98.82688 (Kcal/Mol)
 Warning -- explicit consideration of  13 degrees of freedom as
           vibrations may cause significant error
 Vibrational temperatures:     74.78   163.25   326.80   363.61   412.88
          (Kelvin)            467.96   485.89   534.47   630.01   646.37
                              741.65   860.65   864.37  1079.36  1175.78
                             1189.74  1264.70  1329.46  1358.14  1378.55
                             1421.71  1494.39  1526.11  1553.37  1609.93
                             1626.32  1672.24  1678.15  1753.12  1774.50
                             1792.09  1827.67  1902.11  1911.20  2035.23
                             2064.94  2077.29  2126.34  2148.00  2149.94
                             2706.87  4345.89  4367.38  4387.72  4424.16
                             4438.77  4446.78  4453.81  4463.10  4465.44
                             5470.13

 Zero-point correction=                           0.157491 (Hartree/Particle)
 Thermal correction to Energy=                    0.166236
 Thermal correction to Enthalpy=                  0.167180
 Thermal correction to Gibbs Free Energy=         0.123937
 Sum of electronic and zero-point Energies=           -423.019304
 Sum of electronic and thermal Energies=              -423.010559
 Sum of electronic and thermal Enthalpies=            -423.009615
 Sum of electronic and thermal Free Energies=         -423.052858

                     E (Thermal)             CV                S
                      KCal/Mol        Cal/Mol-Kelvin    Cal/Mol-Kelvin
 Total                  104.314             33.600             91.012
 Electronic               0.000              0.000              0.000
 Translational            0.889              2.981             40.409
 Rotational               0.889              2.981             28.874
 Vibrational            102.537             27.638             21.729
 Vibration     1          0.596              1.977              4.741
 Vibration     2          0.607              1.938              3.209
 Vibration     3          0.651              1.800              1.901
 Vibration     4          0.664              1.758              1.712
 Vibration     5          0.684              1.698              1.492
 Vibration     6          0.709              1.625              1.284
 Vibration     7          0.718              1.600              1.223
 Vibration     8          0.743              1.531              1.074
 Vibration     9          0.798              1.388              0.833
 Vibration    10          0.808              1.363              0.798
 Vibration    11          0.871              1.216              0.621
 Vibration    12          0.956              1.036              0.453
 Vibration    13          0.959              1.030              0.448

 Optimization completed.
    -- Stationary point found.
 Normal termination of Gaussian 09 at Tue Jan 28 03:07:46 2020.
