 Gaussian 09, Revision D.01,
 Gaussian 09:  ES64L-G09RevD.01 24-Apr-2013

 -----------------------------
 # b3lyp 6-31G(2df,p) opt Freq
 -----------------------------

 -----
 titel
 -----
 Symbolic Z-matrix:
 Charge =  0 Multiplicity = 1

 SCF Done:  E(RB3LYP) =  -423.122169495     A.U. after   13 cycles
 Optimization completed.
    -- Stationary point found.
 Normal termination of Gaussian 09 at Tue Jan 28 09:15:21 2020.

 ----------------------------------------------------------------------
 #N Geom=AllCheck Guess=TCheck SCRF=Check GenChk RB3LYP/6-31G(2df,p) Fr
 eq
 ----------------------------------------------------------------------

 Structure from the checkpoint file:  "/scratch/puck/g09_48d3b7e9-b98c-4261-b50f-ca081343e29d/Gau-14470.chk"
 -----
 titel
 -----
 Charge =  0 Multiplicity = 1

                         Standard orientation:
 ---------------------------------------------------------------------
 Center     Atomic      Atomic             Coordinates (Angstroms)
 Number     Number       Type             X           Y           Z
 ---------------------------------------------------------------------
      1          8           0       -2.731031    0.050226   -0.091722
      2          6           0       -1.667946   -0.773834    0.382968
      3          6           0       -0.378400   -0.082504    0.144132
      4          6           0        0.360744    0.268614   -1.140793
      5          6           0        0.498018    1.729958   -0.726096
      6          6           0        0.315657    1.218357    0.730175
      7          6           0        1.591265    0.365820    1.005118
      8          6           0        1.026384   -0.586273   -0.044728
      9          8           0        1.374664   -1.904963   -0.264147
     10          1           0       -3.560756   -0.381448    0.134400
     11          1           0       -1.790458   -0.985763    1.457810
     12          1           0       -1.647391   -1.744093   -0.138612
     13          1           0        0.181383   -0.154220   -2.122003
     14          1           0        1.428134    2.263095   -0.957656
     15          1           0       -0.360568    2.319156   -1.058479
     16          1           0       -0.095467    1.859350    1.506509
     17          1           0        2.565194    0.840848    0.834104
     18          1           0        1.568921   -0.092144    1.998133
     19          1           0        2.087612   -1.927719   -0.911919
 ---------------------------------------------------------------------

 SCF Done:  E(RB3LYP) =  -423.122169495     A.U. after    1 cycles

 The electronic state is 1-A.
 Alpha  occ. eigenvalues --  -19.14815 -19.12789 -10.23470 -10.22761 -10.19023
 Alpha  occ. eigenvalues --  -10.18429 -10.18306 -10.17758 -10.17725  -1.03424
 Alpha  occ. eigenvalues --   -1.00790  -0.91819  -0.72453  -0.71179  -0.68420
 Alpha  occ. eigenvalues --   -0.60052  -0.56344  -0.51965  -0.50758  -0.49154
 Alpha  occ. eigenvalues --   -0.45693  -0.44653  -0.43305  -0.42074  -0.41273
 Alpha  occ. eigenvalues --   -0.36938  -0.34901  -0.34592  -0.32226  -0.29905
 Alpha  occ. eigenvalues --   -0.29730  -0.26321  -0.24599  -0.23386
 Alpha virt. eigenvalues --    0.07201   0.08187   0.11299   0.11460   0.12912
 Alpha virt. eigenvalues --    0.13774   0.15266   0.15998   0.16744   0.17270
 Alpha virt. eigenvalues --    0.17551   0.18725   0.20168   0.22103   0.23332

 Mulliken charges:
               1
     1  O   -0.422257
     2  C   -0.249701
     3  C    0.344376
     4  C   -0.178427
     5  C   -0.231585
     6  C   -0.115030
     7  C   -0.295055
     8  C    0.325422
     9  O   -0.469427
    10  H    0.284129
    11  H    0.088803
    12  H    0.099326
    13  H    0.084138
    14  H    0.081223
    15  H    0.110850
    16  H    0.075161
    17  H    0.081371
    18  H    0.100990
    19  H    0.285693
 Sum of Mulliken charges =   0.00000

 Dipole moment (field-independent basis, Debye):
    X=              0.2386    Y=             -0.4705    Z=             -0.0573  Tot=              0.5307
 Quadrupole moment (field-independent basis, Debye-Ang):
   XX=            -46.3047   YY=            -54.8042   ZZ=            -51.2064
   XY=              2.7821   XZ=             -4.3231   YZ=              1.8745

  Exact polarizability:  82.842   1.314  75.319  -0.796  -0.759  69.815
 Approx polarizability: 114.643  -1.157 109.700  -3.123  -1.466 106.344

                      1                      2                      3
                      A                      A                      A
 Frequencies --     82.5212               110.6438               212.3918
 Red. masses --      3.7141                 4.1815                 2.2652
 Frc consts  --      0.0149                 0.0302                 0.0602
 IR Inten    --      0.3686                 5.1834                13.3735

                      4                      5                      6
                      A                      A                      A
 Frequencies --    254.0971               278.3810               299.4684
 Red. masses --      1.3813                 1.2374                 2.1350
 Frc consts  --      0.0525                 0.0565                 0.1128
 IR Inten    --    108.1902                20.4034                31.1219

                      7                      8                      9
                      A                      A                      A
 Frequencies --    355.9721               392.9988               425.3358
 Red. masses --      2.7429                 3.2271                 1.8674
 Frc consts  --      0.2048                 0.2937                 0.1990
 IR Inten    --     26.9951                 8.0057                 0.1416

                     10                     11                     12
                      A                      A                      A
 Frequencies --    577.2538               602.5397               651.4082
 Red. masses --      3.6948                 4.0741                 3.5204
 Frc consts  --      0.7254                 0.8715                 0.8801
 IR Inten    --     17.0884                 3.2827                 4.8638

                     13                     14                     15
                      A                      A                      A
 Frequencies --    700.0248               778.2725               863.3608
 Red. masses --      3.7142                 2.9976                 2.7291
 Frc consts  --      1.0724                 1.0698                 1.1985
 IR Inten    --      3.7418                 5.3163                 8.7877

                     16                     17                     18
                      A                      A                      A
 Frequencies --    893.9428               919.5848               933.2143
 Red. masses --      2.2701                 1.7305                 1.5841
 Frc consts  --      1.0689                 0.8622                 0.8128
 IR Inten    --      6.0030                 4.1951                 9.8336

                     19                     20                     21
                      A                      A                      A
 Frequencies --    945.2296               990.6944               995.5757
 Red. masses --      2.4215                 2.1437                 1.4190
 Frc consts  --      1.2747                 1.2396                 0.8287
 IR Inten    --      1.1995                 4.0122                 2.7883

                     22                     23                     24
                      A                      A                      A
 Frequencies --   1044.2913              1058.1634              1090.3841
 Red. masses --      3.4829                 1.9186                 1.9260
 Frc consts  --      2.2378                 1.2657                 1.3492
 IR Inten    --     49.8723                12.3886                 5.6877

                     25                     26                     27
                      A                      A                      A
 Frequencies --   1118.4872              1123.1791              1156.1157
 Red. masses --      1.4770                 1.3259                 2.7084
 Frc consts  --      1.0887                 0.9855                 2.1329
 IR Inten    --      9.4804                 2.6590                11.0257

                     28                     29                     30
                      A                      A                      A
 Frequencies --   1180.8628              1207.9155              1225.2382
 Red. masses --      1.7150                 1.6948                 1.5706
 Frc consts  --      1.4090                 1.4570                 1.3892
 IR Inten    --      1.4804                18.1112                15.7580

                     31                     32                     33
                      A                      A                      A
 Frequencies --   1250.3638              1255.1674              1264.8154
 Red. masses --      1.3676                 1.5758                 1.2445
 Frc consts  --      1.2597                 1.4627                 1.1730
 IR Inten    --     19.3247                84.3026                21.7213

                     34                     35                     36
                      A                      A                      A
 Frequencies --   1289.1825              1309.8865              1358.2565
 Red. masses --      1.5164                 1.5203                 2.5882
 Frc consts  --      1.4849                 1.5369                 2.8133
 IR Inten    --     19.2499                67.7476                24.2599

                     37                     38                     39
                      A                      A                      A
 Frequencies --   1439.7982              1487.3710              1496.9729
 Red. masses --      1.6272                 1.3172                 1.3791
 Frc consts  --      1.9874                 1.7168                 1.8209
 IR Inten    --     23.6545                 8.1481                11.0432

                     40                     41                     42
                      A                      A                      A
 Frequencies --   1508.6193              1517.4146              2961.3365
 Red. masses --      1.0923                 1.8907                 1.0574
 Frc consts  --      1.4647                 2.5650                 5.4633
 IR Inten    --      1.1314                23.2025                63.2955

                     43                     44                     45
                      A                      A                      A
 Frequencies --   2991.1788              3021.8108              3028.9723
 Red. masses --      1.1025                 1.0623                 1.0613
 Frc consts  --      5.8120                 5.7152                 5.7370
 IR Inten    --     44.8093                37.3864                94.2486

                     46                     47                     48
                      A                      A                      A
 Frequencies --   3094.9951              3098.9283              3142.7850
 Red. masses --      1.1020                 1.1023                 1.0915
 Frc consts  --      6.2193                 6.2370                 6.3519
 IR Inten    --     25.2548                24.4187                31.1840

                     49                     50                     51
                      A                      A                      A
 Frequencies --   3189.8090              3792.9774              3819.8618
 Red. masses --      1.0925                 1.0661                 1.0662
 Frc consts  --      6.5494                 9.0370                 9.1657
 IR Inten    --     14.4680                21.9427                11.7029

 - Thermochemistry -
 -------------------
 Temperature   298.150 Kelvin.  Pressure   1.00000 Atm.
 Atom     1 has atomic number  8 and mass  15.99491

 Molecular mass:   126.06808 amu.
 Principal axes and moments of inertia in atomic units:
                           1         2         3
     Eigenvalues --   744.351301173.235461486.50149
           X            0.99869   0.05096  -0.00495
           Y           -0.05099   0.99868  -0.00543
           Z            0.00467   0.00567   0.99997
 This molecule is an asymmetric top.
 Rotational symmetry number  1.
 Warning -- assumption of classical behavior for rotation
           may cause significant error
 Rotational temperatures (Kelvin)      0.11636     0.07382     0.05827
 Rotational constants (GHZ):           2.42458     1.53826     1.21409
 Zero-point vibrational energy     417425.2 (Joules/Mol)
                                   99.76703 (Kcal/Mol)
 Warning -- explicit consideration of  11 degrees of freedom as
           vibrations may cause significant error
 Vibrational temperatures:    118.73   159.19   305.58   365.59   400.53
          (Kelvin)            430.87   512.16   565.44   611.96   830.54
                              866.92   937.23  1007.18  1119.76  1242.18
                             1286.18  1323.08  1342.69  1359.97  1425.39
                             1432.41  1502.50  1522.46  1568.82  1609.25
                             1616.00  1663.39  1699.00  1737.92  1762.84
                             1798.99  1805.90  1819.79  1854.84  1884.63
                             1954.23  2071.55  2139.99  2153.81  2170.56
                             2183.22  4260.70  4303.63  4347.71  4358.01
                             4453.00  4458.66  4521.76  4589.42  5457.24
                             5495.92

 Zero-point correction=                           0.158989 (Hartree/Particle)
 Thermal correction to Energy=                    0.167450
 Thermal correction to Enthalpy=                  0.168394
 Thermal correction to Gibbs Free Energy=         0.125974
 Sum of electronic and zero-point Energies=           -422.963181
 Sum of electronic and thermal Energies=              -422.954720
 Sum of electronic and thermal Enthalpies=            -422.953776
 Sum of electronic and thermal Free Energies=         -422.996196

                     E (Thermal)             CV                S
                      KCal/Mol        Cal/Mol-Kelvin    Cal/Mol-Kelvin
 Total                  105.076             32.668             89.281
 Electronic               0.000              0.000              0.000
 Translational            0.889              2.981             40.409
 Rotational               0.889              2.981             28.653
 Vibrational            103.299             26.706             20.219
 Vibration     1          0.600              1.961              3.830
 Vibration     2          0.606              1.941              3.258
 Vibration     3          0.643              1.822              2.023
 Vibration     4          0.665              1.756              1.702
 Vibration     5          0.679              1.714              1.544
 Vibration     6          0.692              1.675              1.420
 Vibration     7          0.731              1.563              1.140
 Vibration     8          0.760              1.485              0.989
 Vibration     9          0.787              1.415              0.874
 Vibration    10          0.934              1.080              0.490
 Vibration    11          0.961              1.026              0.445

 Normal termination of Gaussian 09 at Tue Jan 28 10:02:46 2020.
