 Gaussian 09, Revision D.01,
 Gaussian 09:  ES64L-G09RevD.01 24-Apr-2013

 -----------------------------
 # b3lyp 6-31G(2df,p) opt Freq
 -----------------------------

 -----
 titel
 -----
 Symbolic Z-matrix:
 Charge =  0 Multiplicity = 1

 SCF Done:  E(RB3LYP) =  -423.085532368     A.U. after   13 cycles
 Optimization completed.
    -- Stationary point found.
 Normal termination of Gaussian 09 at Tue Jan 28 09:51:32 2020.

 ----------------------------------------------------------------------
 #N Geom=AllCheck Guess=TCheck SCRF=Check GenChk RB3LYP/6-31G(2df,p) Fr
 eq
 ----------------------------------------------------------------------

 Structure from the checkpoint file:  "/scratch/puck/g09_2b38c388-f7d1-47bb-ad83-760cc88ee6f6/Gau-18813.chk"
 -----
 titel
 -----
 Charge =  0 Multiplicity = 1

                         Standard orientation:
 ---------------------------------------------------------------------
 Center     Atomic      Atomic             Coordinates (Angstroms)
 Number     Number       Type             X           Y           Z
 ---------------------------------------------------------------------
      1          6           0       -2.862348   -0.587801    0.460397
      2          6           0       -2.007140    0.243163   -0.504034
      3          6           0       -0.541565    0.088085   -0.256612
      4          8           0        0.081344   -1.231102   -0.370772
      5          6           0        1.216579   -0.388275   -0.006448
      6          6           0        2.574375   -0.986044    0.144169
      7          6           0        0.704234    0.845599   -0.823695
      8          8           0        0.797068    1.771577    0.296239
      9          6           0        0.373271    0.534358    0.935783
     10          1           0       -3.925630   -0.479398    0.229081
     11          1           0       -2.601426   -1.647325    0.392694
     12          1           0       -2.708800   -0.269419    1.496530
     13          1           0       -2.216587   -0.046458   -1.541012
     14          1           0       -2.246106    1.309980   -0.416258
     15          1           0        3.289159   -0.204011    0.417592
     16          1           0        2.575546   -1.751887    0.925670
     17          1           0        2.900065   -1.447602   -0.792907
     18          1           0        0.940865    1.198990   -1.827927
     19          1           0        0.221188    0.518827    2.015446
 ---------------------------------------------------------------------

 SCF Done:  E(RB3LYP) =  -423.085532368     A.U. after    1 cycles

 The electronic state is 1-A.
 Alpha  occ. eigenvalues --  -19.13755 -19.13239 -10.25107 -10.24802 -10.24331
 Alpha  occ. eigenvalues --  -10.24321 -10.19258 -10.18901 -10.17897  -1.09113
 Alpha  occ. eigenvalues --   -1.01300  -0.78641  -0.76082  -0.73373  -0.66461
 Alpha  occ. eigenvalues --   -0.65275  -0.56998  -0.53009  -0.48719  -0.47502
 Alpha  occ. eigenvalues --   -0.46445  -0.44242  -0.43399  -0.41856  -0.40445
 Alpha  occ. eigenvalues --   -0.38793  -0.37912  -0.36291  -0.35211  -0.34097
 Alpha  occ. eigenvalues --   -0.30744  -0.29403  -0.23891  -0.23801
 Alpha virt. eigenvalues --    0.06273   0.09545   0.10349   0.11189   0.12258
 Alpha virt. eigenvalues --    0.13004   0.13510   0.14324   0.15162   0.16034
 Alpha virt. eigenvalues --    0.16913   0.17730   0.18108   0.19769   0.21032

 Mulliken charges:
               1
     1  C   -0.380736
     2  C   -0.340582
     3  C    0.447452
     4  O   -0.375978
     5  C    0.420622
     6  C   -0.536398
     7  C   -0.068212
     8  O   -0.333193
     9  C   -0.053423
    10  H    0.115427
    11  H    0.139638
    12  H    0.118662
    13  H    0.115131
    14  H    0.120614
    15  H    0.141648
    16  H    0.136779
    17  H    0.136969
    18  H    0.097363
    19  H    0.098218
 Sum of Mulliken charges =   0.00000

 Dipole moment (field-independent basis, Debye):
    X=             -0.1003    Y=             -0.2920    Z=             -0.0305  Tot=              0.3103
 Quadrupole moment (field-independent basis, Debye-Ang):
   XX=            -48.4293   YY=            -59.8361   ZZ=            -49.9496
   XY=             -2.8906   XZ=             -0.2632   YZ=             -2.2684

  Exact polarizability:  88.522  -2.037  68.516  -0.224  -1.735  69.821
 Approx polarizability: 110.673   0.101 109.865   0.244   0.398 108.553

                      1                      2                      3
                      A                      A                      A
 Frequencies --     83.3033               134.8779               165.9700
 Red. masses --      2.5354                 2.9154                 1.3342
 Frc consts  --      0.0104                 0.0312                 0.0217
 IR Inten    --      0.0516                 0.5720                 0.5446

                      4                      5                      6
                      A                      A                      A
 Frequencies --    216.4843               235.0411               266.4965
 Red. masses --      1.0428                 2.2840                 2.3855
 Frc consts  --      0.0288                 0.0743                 0.0998
 IR Inten    --      0.0625                 1.2585                 0.9694

                      7                      8                      9
                      A                      A                      A
 Frequencies --    284.8659               401.3511               532.7232
 Red. masses --      2.8129                 2.7405                 4.3549
 Frc consts  --      0.1345                 0.2601                 0.7282
 IR Inten    --      1.6059                 1.0641                 5.4195

                     10                     11                     12
                      A                      A                      A
 Frequencies --    572.1560               602.6836               695.2581
 Red. masses --      4.4268                 3.2797                 2.6234
 Frc consts  --      0.8538                 0.7019                 0.7472
 IR Inten    --     16.6327                 2.8516                 6.0762

                     13                     14                     15
                      A                      A                      A
 Frequencies --    733.7648               764.1766               774.3174
 Red. masses --      1.9926                 3.4352                 2.8648
 Frc consts  --      0.6321                 1.1819                 1.0120
 IR Inten    --      7.3690                15.8247                 0.5735

                     16                     17                     18
                      A                      A                      A
 Frequencies --    822.2679               845.2439               871.7488
 Red. masses --      2.8282                 5.5510                 2.4101
 Frc consts  --      1.1266                 2.3366                 1.0791
 IR Inten    --      6.9209                17.0084                 5.4703

                     19                     20                     21
                      A                      A                      A
 Frequencies --    919.0826               954.4384               976.8817
 Red. masses --      2.4829                 2.0083                 2.6474
 Frc consts  --      1.2357                 1.0779                 1.4885
 IR Inten    --      4.8965                35.3440                14.8668

                     22                     23                     24
                      A                      A                      A
 Frequencies --   1026.0628              1075.3146              1098.7200
 Red. masses --      1.3852                 1.7340                 1.9203
 Frc consts  --      0.8592                 1.1813                 1.3658
 IR Inten    --      0.2341                14.8659                 2.3622

                     25                     26                     27
                      A                      A                      A
 Frequencies --   1104.4111              1117.8902              1147.0440
 Red. masses --      2.2800                 2.8974                 1.6528
 Frc consts  --      1.6385                 2.1333                 1.2812
 IR Inten    --      3.0478                 1.0048                 4.3301

                     28                     29                     30
                      A                      A                      A
 Frequencies --   1163.1843              1202.4684              1267.0616
 Red. masses --      1.7910                 2.7084                 2.2823
 Frc consts  --      1.4277                 2.3073                 2.1589
 IR Inten    --      1.3414                44.4060                37.8521

                     31                     32                     33
                      A                      A                      A
 Frequencies --   1270.0985              1308.8822              1360.0353
 Red. masses --      1.8764                 1.3501                 1.5931
 Frc consts  --      1.7834                 1.3628                 1.7362
 IR Inten    --      5.0130                11.0997                 0.5794

                     34                     35                     36
                      A                      A                      A
 Frequencies --   1400.5551              1409.3962              1457.1040
 Red. masses --      1.4181                 1.2372                 4.3577
 Frc consts  --      1.6389                 1.4479                 5.4511
 IR Inten    --      8.0199                 2.4799                 2.9912

                     37                     38                     39
                      A                      A                      A
 Frequencies --   1470.2531              1475.8296              1490.0941
 Red. masses --      1.0828                 1.0461                 1.0528
 Frc consts  --      1.3790                 1.3424                 1.3773
 IR Inten    --      2.3405                 4.7940                 3.7568

                     40                     41                     42
                      A                      A                      A
 Frequencies --   1496.2202              1507.6907              3031.3745
 Red. masses --      1.0388                 1.0984                 1.0595
 Frc consts  --      1.3702                 1.4711                 5.7361
 IR Inten    --      5.9586                 4.4200                15.5523

                     43                     44                     45
                      A                      A                      A
 Frequencies --   3040.8579              3042.8305              3068.7766
 Red. masses --      1.0343                 1.0355                 1.1010
 Frc consts  --      5.6352                 5.6486                 6.1090
 IR Inten    --     15.7911                22.3707                 7.2565

                     46                     47                     48
                      A                      A                      A
 Frequencies --   3111.0121              3113.7346              3115.3555
 Red. masses --      1.1010                 1.1013                 1.0919
 Frc consts  --      6.2783                 6.2911                 6.2436
 IR Inten    --     23.5233                21.4406                64.4225

                     49                     50                     51
                      A                      A                      A
 Frequencies --   3119.5123              3121.9058              3123.8230
 Red. masses --      1.1010                 1.0965                 1.1021
 Frc consts  --      6.3126                 6.2962                 6.3363
 IR Inten    --      9.5737                 0.8880                20.8367

 - Thermochemistry -
 -------------------
 Temperature   298.150 Kelvin.  Pressure   1.00000 Atm.
 Atom     1 has atomic number  6 and mass  12.00000

 Molecular mass:   126.06808 amu.
 Principal axes and moments of inertia in atomic units:
                           1         2         3
     Eigenvalues --   569.642011339.180971602.49611
           X            0.99982  -0.01866  -0.00441
           Y            0.01844   0.99882  -0.04489
           Z            0.00524   0.04480   0.99898
 This molecule is an asymmetric top.
 Rotational symmetry number  1.
 Warning -- assumption of classical behavior for rotation
           may cause significant error
 Rotational temperatures (Kelvin)      0.15205     0.06468     0.05405
 Rotational constants (GHZ):           3.16820     1.34765     1.12621
 Zero-point vibrational energy     410263.1 (Joules/Mol)
                                   98.05523 (Kcal/Mol)
 Warning -- explicit consideration of  11 degrees of freedom as
           vibrations may cause significant error
 Vibrational temperatures:    119.85   194.06   238.79   311.47   338.17
          (Kelvin)            383.43   409.86   577.45   766.47   823.20
                              867.13  1000.32  1055.72  1099.48  1114.07
                             1183.06  1216.12  1254.25  1322.35  1373.22
                             1405.51  1476.27  1547.14  1580.81  1589.00
                             1608.39  1650.34  1673.56  1730.08  1823.02
                             1827.39  1883.19  1956.78  2015.08  2027.80
                             2096.45  2115.36  2123.39  2143.91  2152.72
                             2169.23  4361.47  4375.11  4377.95  4415.28
                             4476.05  4479.96  4482.30  4488.28  4491.72
                             4494.48

 Zero-point correction=                           0.156261 (Hartree/Particle)
 Thermal correction to Energy=                    0.164941
 Thermal correction to Enthalpy=                  0.165885
 Thermal correction to Gibbs Free Energy=         0.123022
 Sum of electronic and zero-point Energies=           -422.929271
 Sum of electronic and thermal Energies=              -422.920591
 Sum of electronic and thermal Enthalpies=            -422.919647
 Sum of electronic and thermal Free Energies=         -422.962511

                     E (Thermal)             CV                S
                      KCal/Mol        Cal/Mol-Kelvin    Cal/Mol-Kelvin
 Total                  103.502             33.008             90.214
 Electronic               0.000              0.000              0.000
 Translational            0.889              2.981             40.409
 Rotational               0.889              2.981             28.593
 Vibrational            101.725             27.046             21.212
 Vibration     1          0.600              1.961              3.812
 Vibration     2          0.613              1.919              2.875
 Vibration     3          0.624              1.884              2.481
 Vibration     4          0.645              1.816              1.988
 Vibration     5          0.655              1.787              1.840
 Vibration     6          0.672              1.735              1.619
 Vibration     7          0.683              1.702              1.504
 Vibration     8          0.767              1.467              0.958
 Vibration     9          0.888              1.178              0.581
 Vibration    10          0.928              1.091              0.500
 Vibration    11          0.961              1.026              0.445

 Normal termination of Gaussian 09 at Tue Jan 28 10:33:09 2020.
