 Gaussian 09, Revision D.01,
 Gaussian 09:  ES64L-G09RevD.01 24-Apr-2013

 -----------------------------
 # b3lyp 6-31G(2df,p) opt Freq
 -----------------------------

 -----
 titel
 -----
 Symbolic Z-matrix:
 Charge =  0 Multiplicity = 1

 SCF Done:  E(RB3LYP) =  -423.197960064     A.U. after   13 cycles
 Optimization completed.
    -- Stationary point found.
 Normal termination of Gaussian 09 at Tue Jan 28 00:02:06 2020.

 ----------------------------------------------------------------------
 #N Geom=AllCheck Guess=TCheck SCRF=Check GenChk RB3LYP/6-31G(2df,p) Fr
 eq
 ----------------------------------------------------------------------

 Structure from the checkpoint file:  "/scratch/puck/g09_ab567e5e-4079-4145-90bb-2decd712296e/Gau-131056.chk"
 -----
 titel
 -----
 Charge =  0 Multiplicity = 1

                         Standard orientation:
 ---------------------------------------------------------------------
 Center     Atomic      Atomic             Coordinates (Angstroms)
 Number     Number       Type             X           Y           Z
 ---------------------------------------------------------------------
      1          8           0        1.504330   -1.551672   -0.303391
      2          6           0        0.152163   -1.162427   -0.292164
      3          6           0       -0.233977    0.029754   -1.203906
      4          6           0       -1.643050    0.348742   -0.664588
      5          8           0       -1.704263   -0.169024    0.679436
      6          6           0       -0.386248   -0.588455    1.033254
      7          6           0        0.480470    0.591478    1.448196
      8          6           0        0.992337    1.403803    0.518388
      9          6           0        0.755053    1.185901   -0.958992
     10          1           0        2.001776   -0.877231    0.175248
     11          1           0       -0.425719   -2.051259   -0.561384
     12          1           0       -0.254699   -0.237064   -2.262924
     13          1           0       -1.848949    1.426837   -0.656943
     14          1           0       -2.428691   -0.143240   -1.249563
     15          1           0       -0.479924   -1.327397    1.831436
     16          1           0        0.647848    0.774002    2.505378
     17          1           0        1.601312    2.258177    0.805292
     18          1           0        0.376188    2.110375   -1.413821
     19          1           0        1.709825    0.979597   -1.462202
 ---------------------------------------------------------------------

 SCF Done:  E(RB3LYP) =  -423.197960064     A.U. after    1 cycles

 The electronic state is 1-A.
 Alpha  occ. eigenvalues --  -19.13591 -19.13360 -10.23030 -10.22911 -10.22523
 Alpha  occ. eigenvalues --  -10.19716 -10.19464 -10.19016 -10.18749  -1.03604
 Alpha  occ. eigenvalues --   -1.01550  -0.82677  -0.76992  -0.73162  -0.67601
 Alpha  occ. eigenvalues --   -0.61522  -0.57369  -0.54427  -0.52709  -0.48851
 Alpha  occ. eigenvalues --   -0.46290  -0.43724  -0.42901  -0.41490  -0.40739
 Alpha  occ. eigenvalues --   -0.40334  -0.39068  -0.35740  -0.34032  -0.31906
 Alpha  occ. eigenvalues --   -0.31029  -0.27983  -0.25199  -0.23978
 Alpha virt. eigenvalues --   -0.00028   0.07912   0.10064   0.12003   0.12247
 Alpha virt. eigenvalues --    0.13134   0.14978   0.15132   0.16111   0.17076
 Alpha virt. eigenvalues --    0.18620   0.19020   0.19938   0.21726   0.23906

 Mulliken charges:
               1
     1  O   -0.447936
     2  C    0.128091
     3  C   -0.089011
     4  C   -0.078519
     5  O   -0.267801
     6  C    0.033400
     7  C   -0.093698
     8  C   -0.063549
     9  C   -0.272704
    10  H    0.280748
    11  H    0.092718
    12  H    0.075443
    13  H    0.097985
    14  H    0.105105
    15  H    0.079515
    16  H    0.095848
    17  H    0.096323
    18  H    0.111852
    19  H    0.116191
 Sum of Mulliken charges =   0.00000

 Dipole moment (field-independent basis, Debye):
    X=              0.7663    Y=              1.5679    Z=             -0.4279  Tot=              1.7968
 Quadrupole moment (field-independent basis, Debye-Ang):
   XX=            -55.6531   YY=            -54.3603   ZZ=            -50.8789
   XY=              3.6830   XZ=              4.2792   YZ=             -1.5851

  Exact polarizability:  71.834   6.115  73.432   1.913  -3.895  76.679
 Approx polarizability: 107.884   9.129 110.792  -3.398 -10.661 116.862

                      1                      2                      3
                      A                      A                      A
 Frequencies --    140.7131               211.3204               278.6362
 Red. masses --      2.4143                 4.5927                 3.3002
 Frc consts  --      0.0282                 0.1208                 0.1510
 IR Inten    --      1.5993                 2.5261                 5.8650

                      4                      5                      6
                      A                      A                      A
 Frequencies --    304.7159               357.5271               410.1839
 Red. masses --      4.0472                 1.4743                 1.5065
 Frc consts  --      0.2214                 0.1110                 0.1493
 IR Inten    --      4.0234                12.4785                42.2122

                      7                      8                      9
                      A                      A                      A
 Frequencies --    477.7492               539.7383               560.4191
 Red. masses --      2.6912                 4.8944                 3.4812
 Frc consts  --      0.3619                 0.8401                 0.6442
 IR Inten    --      3.6956                 1.9733                 3.0048

                     10                     11                     12
                      A                      A                      A
 Frequencies --    611.3990               711.1574               754.7730
 Red. masses --      5.0308                 2.3078                 2.5930
 Frc consts  --      1.1080                 0.6877                 0.8703
 IR Inten    --      4.1568                12.1069                12.3622

                     13                     14                     15
                      A                      A                      A
 Frequencies --    810.7982               834.0242               896.9846
 Red. masses --      3.1741                 2.6845                 2.2901
 Frc consts  --      1.2294                 1.1002                 1.0856
 IR Inten    --      4.0300                 5.0833                 7.4755

                     16                     17                     18
                      A                      A                      A
 Frequencies --    913.9721               924.1393               954.2507
 Red. masses --      2.9272                 2.4169                 2.2351
 Frc consts  --      1.4407                 1.2161                 1.1991
 IR Inten    --     13.5174                 6.0272                 4.2924

                     19                     20                     21
                      A                      A                      A
 Frequencies --    996.0546              1011.7041              1037.1403
 Red. masses --      1.5652                 2.2374                 2.3514
 Frc consts  --      0.9149                 1.3493                 1.4902
 IR Inten    --      2.0686                 7.8160                52.1881

                     22                     23                     24
                      A                      A                      A
 Frequencies --   1060.1564              1091.8704              1110.5719
 Red. masses --      1.9494                 3.4969                 1.6864
 Frc consts  --      1.2909                 2.4563                 1.2254
 IR Inten    --      3.6889                44.8087                21.2854

                     25                     26                     27
                      A                      A                      A
 Frequencies --   1126.9611              1133.8453              1199.7588
 Red. masses --      2.2797                 1.4471                 1.1410
 Frc consts  --      1.7058                 1.0961                 0.9677
 IR Inten    --    104.3878                 2.7330                13.0967

                     28                     29                     30
                      A                      A                      A
 Frequencies --   1213.4243              1257.2905              1277.2936
 Red. masses --      1.0849                 1.4872                 1.4306
 Frc consts  --      0.9412                 1.3852                 1.3752
 IR Inten    --      1.1116                 7.9089                 5.6183

                     31                     32                     33
                      A                      A                      A
 Frequencies --   1285.9157              1307.7652              1344.1478
 Red. masses --      1.3926                 1.5573                 1.2808
 Frc consts  --      1.3568                 1.5693                 1.3634
 IR Inten    --      0.9520                 0.5293                 1.6313

                     34                     35                     36
                      A                      A                      A
 Frequencies --   1352.3779              1370.5549              1391.2376
 Red. masses --      1.6898                 1.3929                 1.4000
 Frc consts  --      1.8209                 1.5416                 1.5965
 IR Inten    --      6.5105                10.3745                 2.2942

                     37                     38                     39
                      A                      A                      A
 Frequencies --   1408.3401              1438.2267              1473.0339
 Red. masses --      1.5214                 1.2627                 1.0949
 Frc consts  --      1.7779                 1.5389                 1.3998
 IR Inten    --      6.2096                60.9019                 7.4688

                     40                     41                     42
                      A                      A                      A
 Frequencies --   1521.7790              1692.8807              3012.8296
 Red. masses --      1.0927                 6.1538                 1.0607
 Frc consts  --      1.4909                10.3907                 5.6725
 IR Inten    --      1.4709                 3.9997                25.8322

                     43                     44                     45
                      A                      A                      A
 Frequencies --   3015.0274              3039.5401              3054.3931
 Red. masses --      1.0609                 1.0991                 1.1056
 Frc consts  --      5.6821                 5.9826                 6.0772
 IR Inten    --     53.6655                24.5723                29.3956

                     46                     47                     48
                      A                      A                      A
 Frequencies --   3070.6814              3086.7817              3097.4607
 Red. masses --      1.0862                 1.0869                 1.0887
 Frc consts  --      6.0344                 6.1015                 6.1543
 IR Inten    --     15.7566                49.6401                33.0483

                     49                     50                     51
                      A                      A                      A
 Frequencies --   3148.3955              3178.8755              3772.1245
 Red. masses --      1.0855                 1.0970                 1.0650
 Frc consts  --      6.3396                 6.5311                 8.9286
 IR Inten    --     11.2885                24.6119                25.5393

 - Thermochemistry -
 -------------------
 Temperature   298.150 Kelvin.  Pressure   1.00000 Atm.
 Atom     1 has atomic number  8 and mass  15.99491

 Molecular mass:   126.06808 amu.
 Principal axes and moments of inertia in atomic units:
                           1         2         3
     Eigenvalues --   826.75184 951.112361019.02676
           X            0.98865   0.13104   0.07354
           Y           -0.12301   0.98686  -0.10475
           Z           -0.08630   0.09452   0.99178
 This molecule is an asymmetric top.
 Rotational symmetry number  1.
 Warning -- assumption of classical behavior for rotation
           may cause significant error
 Rotational temperatures (Kelvin)      0.10476     0.09107     0.08500
 Rotational constants (GHZ):           2.18293     1.89751     1.77104
 Zero-point vibrational energy     426294.9 (Joules/Mol)
                                  101.88693 (Kcal/Mol)
 Warning -- explicit consideration of  10 degrees of freedom as
           vibrations may cause significant error
 Vibrational temperatures:    202.45   304.04   400.89   438.42   514.40
          (Kelvin)            590.16   687.37   776.56   806.32   879.67
                             1023.20  1085.95  1166.56  1199.97  1290.56
                             1315.00  1329.63  1372.95  1433.10  1455.61
                             1492.21  1525.33  1570.96  1597.86  1621.44
                             1631.35  1726.18  1745.84  1808.96  1837.74
                             1850.14  1881.58  1933.93  1945.77  1971.92
                             2001.68  2026.28  2069.28  2119.36  2189.50
                             2435.67  4334.78  4337.95  4373.21  4394.58
                             4418.02  4441.18  4456.55  4529.83  4573.69
                             5427.24

 Zero-point correction=                           0.162367 (Hartree/Particle)
 Thermal correction to Energy=                    0.169604
 Thermal correction to Enthalpy=                  0.170548
 Thermal correction to Gibbs Free Energy=         0.131120
 Sum of electronic and zero-point Energies=           -423.035593
 Sum of electronic and thermal Energies=              -423.028356
 Sum of electronic and thermal Enthalpies=            -423.027412
 Sum of electronic and thermal Free Energies=         -423.066841

                     E (Thermal)             CV                S
                      KCal/Mol        Cal/Mol-Kelvin    Cal/Mol-Kelvin
 Total                  106.428             29.682             82.985
 Electronic               0.000              0.000              0.000
 Translational            0.889              2.981             40.409
 Rotational               0.889              2.981             28.174
 Vibrational            104.651             23.720             14.403
 Vibration     1          0.615              1.913              2.794
 Vibration     2          0.643              1.824              2.032
 Vibration     3          0.679              1.713              1.542
 Vibration     4          0.696              1.665              1.391
 Vibration     5          0.733              1.560              1.133
 Vibration     6          0.774              1.448              0.926
 Vibration     7          0.834              1.299              0.716
 Vibration     8          0.895              1.162              0.566
 Vibration     9          0.916              1.117              0.523
 Vibration    10          0.971              1.008              0.430

 Optimization completed.
    -- Stationary point found.
 Normal termination of Gaussian 09 at Tue Jan 28 00:47:45 2020.
