 Gaussian 09, Revision D.01,
 Gaussian 09:  ES64L-G09RevD.01 24-Apr-2013

 -----------------------------
 # b3lyp 6-31G(2df,p) opt Freq
 -----------------------------

 -----
 titel
 -----
 Symbolic Z-matrix:
 Charge =  0 Multiplicity = 1

 SCF Done:  E(RB3LYP) =  -423.194267904     A.U. after   14 cycles
 Optimization completed.
    -- Stationary point found.
 Normal termination of Gaussian 09 at Mon Jan 27 23:06:22 2020.

 ----------------------------------------------------------------------
 #N Geom=AllCheck Guess=TCheck SCRF=Check GenChk RB3LYP/6-31G(2df,p) Fr
 eq
 ----------------------------------------------------------------------

 Structure from the checkpoint file:  "/scratch/puck/g09_bd416525-7e4b-458c-9b92-f81379b5d460/Gau-66430.chk"
 -----
 titel
 -----
 Charge =  0 Multiplicity = 1

                         Standard orientation:
 ---------------------------------------------------------------------
 Center     Atomic      Atomic             Coordinates (Angstroms)
 Number     Number       Type             X           Y           Z
 ---------------------------------------------------------------------
      1          6           0       -1.893521    1.477419   -0.083789
      2          6           0       -0.642945    0.642288    0.045309
      3          6           0       -0.236595   -0.060488    1.382945
      4          6           0        0.612136   -0.982706    0.444373
      5          6           0       -0.540703   -0.778648   -0.614068
      6          8           0       -1.658050   -1.619099   -0.511983
      7          6           0        1.612800    0.028717   -0.085287
      8          8           0        2.797889   -0.081725   -0.247583
      9          6           0        0.709546    1.245699   -0.387778
     10          1           0       -1.871366    2.338166    0.593500
     11          1           0       -2.008354    1.858970   -1.104362
     12          1           0       -2.782984    0.883026    0.148762
     13          1           0        0.293845    0.529625    2.135648
     14          1           0       -1.061865   -0.586274    1.870637
     15          1           0        0.986256   -1.963921    0.728350
     16          1           0       -0.251567   -0.809135   -1.668912
     17          1           0       -1.909479   -1.714256    0.412434
     18          1           0        1.005514    2.121856    0.198766
     19          1           0        0.756981    1.514852   -1.448520
 ---------------------------------------------------------------------

 SCF Done:  E(RB3LYP) =  -423.194267904     A.U. after    1 cycles

 The electronic state is 1-A.
 Alpha  occ. eigenvalues --  -19.15475 -19.12950 -10.26800 -10.24895 -10.20978
 Alpha  occ. eigenvalues --  -10.20594 -10.20137 -10.19356 -10.18518  -1.04291
 Alpha  occ. eigenvalues --   -1.03805  -0.89590  -0.74880  -0.71985  -0.67898
 Alpha  occ. eigenvalues --   -0.64393  -0.57200  -0.53376  -0.50768  -0.48399
 Alpha  occ. eigenvalues --   -0.47027  -0.43899  -0.42085  -0.41907  -0.40725
 Alpha  occ. eigenvalues --   -0.39281  -0.38863  -0.37990  -0.36077  -0.35475
 Alpha  occ. eigenvalues --   -0.32305  -0.31121  -0.26999  -0.23461
 Alpha virt. eigenvalues --   -0.01131   0.05840   0.08871   0.11473   0.11916
 Alpha virt. eigenvalues --    0.13205   0.13669   0.14419   0.15617   0.15708
 Alpha virt. eigenvalues --    0.17835   0.18350   0.19706   0.21247   0.22519

 Mulliken charges:
               1
     1  C   -0.495468
     2  C    0.293408
     3  C   -0.315133
     4  C   -0.175685
     5  C    0.140150
     6  O   -0.446760
     7  C    0.435199
     8  O   -0.334021
     9  C   -0.379912
    10  H    0.119374
    11  H    0.122856
    12  H    0.117544
    13  H    0.110226
    14  H    0.095463
    15  H    0.084942
    16  H    0.091928
    17  H    0.285620
    18  H    0.125375
    19  H    0.124891
 Sum of Mulliken charges =   0.00000

 Dipole moment (field-independent basis, Debye):
    X=             -2.5899    Y=              0.9145    Z=              1.5202  Tot=              3.1393
 Quadrupole moment (field-independent basis, Debye-Ang):
   XX=            -64.5067   YY=            -52.5597   ZZ=            -51.1138
   XY=             -0.1153   XZ=             -1.8130   YZ=             -2.7211

  Exact polarizability:  84.450  -0.549  74.053  -1.968  -2.239  67.442
 Approx polarizability: 125.600   2.321 107.046  -3.693  -1.453 105.156

                      1                      2                      3
                      A                      A                      A
 Frequencies --    131.0323               195.2161               212.9837
 Red. masses --      5.3859                 1.1828                 1.8845
 Frc consts  --      0.0545                 0.0266                 0.0504
 IR Inten    --      4.6315                 0.6490                 6.1759

                      4                      5                      6
                      A                      A                      A
 Frequencies --    231.7135               240.1782               318.0470
 Red. masses --      1.2701                 2.8446                 3.2763
 Frc consts  --      0.0402                 0.0967                 0.1953
 IR Inten    --     62.4551                 3.6121                18.8663

                      7                      8                      9
                      A                      A                      A
 Frequencies --    371.3727               412.5244               494.0571
 Red. masses --      2.8869                 2.0659                 4.2167
 Frc consts  --      0.2346                 0.2071                 0.6064
 IR Inten    --      9.4888                 1.8651                 6.7341

                     10                     11                     12
                      A                      A                      A
 Frequencies --    526.9558               563.3350               606.1203
 Red. masses --      4.1399                 3.2452                 2.4439
 Frc consts  --      0.6773                 0.6068                 0.5290
 IR Inten    --      2.0396                 2.8791                 3.3324

                     13                     14                     15
                      A                      A                      A
 Frequencies --    659.7746               761.2917               815.1287
 Red. masses --      3.1979                 2.9698                 2.9530
 Frc consts  --      0.8202                 1.0141                 1.1560
 IR Inten    --      2.9947                14.9452                 4.5255

                     16                     17                     18
                      A                      A                      A
 Frequencies --    830.2404               855.1810               932.4728
 Red. masses --      2.8048                 2.2879                 2.0009
 Frc consts  --      1.1391                 0.9858                 1.0251
 IR Inten    --     14.1358                 8.3720                 0.1122

                     19                     20                     21
                      A                      A                      A
 Frequencies --    933.6712               962.6534               993.3950
 Red. masses --      1.9790                 2.0039                 1.7725
 Frc consts  --      1.0164                 1.0941                 1.0306
 IR Inten    --      1.9101                 1.4783                 6.0642

                     22                     23                     24
                      A                      A                      A
 Frequencies --   1034.5729              1076.5140              1098.5376
 Red. masses --      1.3794                 1.6614                 1.7944
 Frc consts  --      0.8699                 1.1344                 1.2759
 IR Inten    --     12.7911                13.7384                18.5587

                     25                     26                     27
                      A                      A                      A
 Frequencies --   1117.9598              1158.2659              1189.0517
 Red. masses --      2.1065                 1.7705                 1.6262
 Frc consts  --      1.5512                 1.3995                 1.3547
 IR Inten    --     55.8032                54.8216                15.9327

                     28                     29                     30
                      A                      A                      A
 Frequencies --   1198.9401              1227.6156              1230.9373
 Red. masses --      1.5459                 1.5830                 1.7939
 Frc consts  --      1.3092                 1.4056                 1.6015
 IR Inten    --     40.4648                 3.7403                 3.7529

                     31                     32                     33
                      A                      A                      A
 Frequencies --   1235.8349              1252.2209              1295.8360
 Red. masses --      2.0812                 1.9795                 1.7473
 Frc consts  --      1.8728                 1.8288                 1.7287
 IR Inten    --     25.1959                 5.0690                 5.0094

                     34                     35                     36
                      A                      A                      A
 Frequencies --   1339.6268              1413.9814              1443.7843
 Red. masses --      2.7166                 1.3370                 1.1761
 Frc consts  --      2.8724                 1.5750                 1.4445
 IR Inten    --     11.4883                 5.1326                40.8293

                     37                     38                     39
                      A                      A                      A
 Frequencies --   1462.2737              1489.4725              1494.4959
 Red. masses --      1.1291                 1.0493                 1.0516
 Frc consts  --      1.4224                 1.3715                 1.3838
 IR Inten    --     22.5446                 4.0985                 9.5792

                     40                     41                     42
                      A                      A                      A
 Frequencies --   1515.4403              1868.8034              3028.6703
 Red. masses --      1.1100                12.4187                 1.0354
 Frc consts  --      1.5019                25.5538                 5.5959
 IR Inten    --      2.6190               278.9719                25.2021

                     43                     44                     45
                      A                      A                      A
 Frequencies --   3046.9902              3052.9066              3069.4657
 Red. masses --      1.0588                 1.0575                 1.0865
 Frc consts  --      5.7918                 5.8069                 6.0313
 IR Inten    --     15.3713                31.5840                26.9568

                     46                     47                     48
                      A                      A                      A
 Frequencies --   3092.7102              3094.9226              3099.9550
 Red. masses --      1.1041                 1.1012                 1.1024
 Frc consts  --      6.2218                 6.2146                 6.2419
 IR Inten    --      1.4008                27.5171                 5.7077

                     49                     50                     51
                      A                      A                      A
 Frequencies --   3102.5853              3149.5505              3816.6408
 Red. masses --      1.1069                 1.0914                 1.0652
 Frc consts  --      6.2780                 6.3786                 9.1421
 IR Inten    --     41.0778                20.0312                15.0726

 - Thermochemistry -
 -------------------
 Temperature   298.150 Kelvin.  Pressure   1.00000 Atm.
 Atom     1 has atomic number  6 and mass  12.00000

 Molecular mass:   126.06808 amu.
 Principal axes and moments of inertia in atomic units:
                           1         2         3
     Eigenvalues --   669.774961207.503201503.90539
           X            0.99940  -0.03443  -0.00479
           Y            0.03424   0.99879  -0.03544
           Z            0.00600   0.03525   0.99936
 This molecule is an asymmetric top.
 Rotational symmetry number  1.
 Warning -- assumption of classical behavior for rotation
           may cause significant error
 Rotational temperatures (Kelvin)      0.12932     0.07173     0.05759
 Rotational constants (GHZ):           2.69455     1.49461     1.20004
 Zero-point vibrational energy     417173.2 (Joules/Mol)
                                   99.70678 (Kcal/Mol)
 Warning -- explicit consideration of  12 degrees of freedom as
           vibrations may cause significant error
 Vibrational temperatures:    188.53   280.87   306.44   333.38   345.56
          (Kelvin)            457.60   534.32   593.53   710.84   758.17
                              810.51   872.07   949.27  1095.33  1172.79
                             1194.53  1230.41  1341.62  1343.34  1385.04
                             1429.27  1488.52  1548.86  1580.55  1608.49
                             1666.48  1710.78  1725.01  1766.26  1771.04
                             1778.09  1801.66  1864.42  1927.42  2034.40
                             2077.28  2103.88  2143.02  2150.24  2180.38
                             2688.79  4357.58  4383.93  4392.45  4416.27
                             4449.71  4452.90  4460.14  4463.92  4531.50
                             5491.29

 Zero-point correction=                           0.158893 (Hartree/Particle)
 Thermal correction to Energy=                    0.167209
 Thermal correction to Enthalpy=                  0.168153
 Thermal correction to Gibbs Free Energy=         0.126531
 Sum of electronic and zero-point Energies=           -423.035375
 Sum of electronic and thermal Energies=              -423.027059
 Sum of electronic and thermal Enthalpies=            -423.026115
 Sum of electronic and thermal Free Energies=         -423.067737

                     E (Thermal)             CV                S
                      KCal/Mol        Cal/Mol-Kelvin    Cal/Mol-Kelvin
 Total                  104.925             32.825             87.602
 Electronic               0.000              0.000              0.000
 Translational            0.889              2.981             40.409
 Rotational               0.889              2.981             28.588
 Vibrational            103.148             26.863             18.605
 Vibration     1          0.612              1.922              2.931
 Vibration     2          0.636              1.847              2.178
 Vibration     3          0.644              1.821              2.018
 Vibration     4          0.653              1.792              1.866
 Vibration     5          0.657              1.779              1.802
 Vibration     6          0.704              1.639              1.320
 Vibration     7          0.743              1.531              1.074
 Vibration     8          0.776              1.443              0.918
 Vibration     9          0.850              1.263              0.673
 Vibration    10          0.882              1.190              0.594
 Vibration    11          0.919              1.111              0.517
 Vibration    12          0.965              1.019              0.439

 Optimization completed.
    -- Stationary point found.
 Normal termination of Gaussian 09 at Mon Jan 27 23:51:17 2020.
