 Gaussian 09, Revision D.01,
 Gaussian 09:  ES64L-G09RevD.01 24-Apr-2013

 -----------------------------
 # b3lyp 6-31G(2df,p) opt Freq
 -----------------------------

 -----
 titel
 -----
 Symbolic Z-matrix:
 Charge =  0 Multiplicity = 1

 SCF Done:  E(RB3LYP) =  -423.137187061     A.U. after   14 cycles
 Optimization completed.
    -- Stationary point found.
 Normal termination of Gaussian 09 at Tue Jan 28 12:01:36 2020.

 ----------------------------------------------------------------------
 #N Geom=AllCheck Guess=TCheck SCRF=Check GenChk RB3LYP/6-31G(2df,p) Fr
 eq
 ----------------------------------------------------------------------

 Structure from the checkpoint file:  "/scratch/puck/g09_fdd34bb6-de34-4e14-8e05-07f04c80a894/Gau-113136.chk"
 -----
 titel
 -----
 Charge =  0 Multiplicity = 1

                         Standard orientation:
 ---------------------------------------------------------------------
 Center     Atomic      Atomic             Coordinates (Angstroms)
 Number     Number       Type             X           Y           Z
 ---------------------------------------------------------------------
      1          6           0       -2.862810   -0.824700   -0.153229
      2          8           0       -1.672106   -0.611075    0.570498
      3          6           0       -0.573776   -0.245494   -0.239866
      4          6           0       -0.627994    1.224929   -0.735734
      5          6           0        0.705750    1.816201   -0.256512
      6          8           0        1.026585    1.087429    0.922346
      7          6           0        0.700865   -0.273024    0.655684
      8          6           0        1.814720   -0.978985    0.012398
      9          6           0        2.728032   -1.549037   -0.522496
     10          1           0       -2.736372   -1.608674   -0.916442
     11          1           0       -3.621716   -1.146831    0.563574
     12          1           0       -3.217545    0.088458   -0.653928
     13          1           0       -0.479068   -0.954325   -1.072955
     14          1           0       -0.765196    1.311302   -1.815894
     15          1           0       -1.464277    1.720798   -0.235230
     16          1           0        1.492202    1.688321   -1.015698
     17          1           0        0.650608    2.873313    0.012749
     18          1           0        0.456518   -0.745726    1.610849
     19          1           0        3.540284   -2.056807   -0.981249
 ---------------------------------------------------------------------

 SCF Done:  E(RB3LYP) =  -423.137187061     A.U. after    1 cycles

 The electronic state is 1-A.
 Alpha  occ. eigenvalues --  -19.14618 -19.14211 -10.25128 -10.24137 -10.22883
 Alpha  occ. eigenvalues --  -10.22876 -10.18721 -10.18151 -10.17684  -1.04986
 Alpha  occ. eigenvalues --   -1.03194  -0.78652  -0.76999  -0.72560  -0.67998
 Alpha  occ. eigenvalues --   -0.61776  -0.59155  -0.53673  -0.51341  -0.50429
 Alpha  occ. eigenvalues --   -0.47532  -0.46941  -0.44074  -0.43874  -0.40891
 Alpha  occ. eigenvalues --   -0.38971  -0.36622  -0.35846  -0.33180  -0.31809
 Alpha  occ. eigenvalues --   -0.28171  -0.27147  -0.25782  -0.25480
 Alpha virt. eigenvalues --    0.03690   0.05087   0.08925   0.10041   0.11105
 Alpha virt. eigenvalues --    0.12606   0.13770   0.14551   0.15183   0.15905
 Alpha virt. eigenvalues --    0.16210   0.17629   0.19309   0.19639   0.20955

 Mulliken charges:
               1
     1  C   -0.238522
     2  O   -0.245867
     3  C    0.123379
     4  C   -0.255695
     5  C   -0.087462
     6  O   -0.230345
     7  C   -0.126602
     8  C    0.344022
     9  C   -0.478710
    10  H    0.107219
    11  H    0.131431
    12  H    0.107620
    13  H    0.084394
    14  H    0.104793
    15  H    0.120607
    16  H    0.102267
    17  H    0.114067
    18  H    0.124065
    19  H    0.199340
 Sum of Mulliken charges =   0.00000

 Dipole moment (field-independent basis, Debye):
    X=             -1.2224    Y=             -0.0725    Z=             -2.1770  Tot=              2.4978
 Quadrupole moment (field-independent basis, Debye-Ang):
   XX=            -49.2072   YY=            -51.1569   ZZ=            -54.1756
   XY=             -2.0789   XZ=             -1.4254   YZ=             -0.6921

  Exact polarizability:  92.561  -7.836  76.742  -6.458   1.955  62.898
 Approx polarizability: 122.613 -15.595 107.557 -14.902   8.087 102.078

                      1                      2                      3
                      A                      A                      A
 Frequencies --     31.5346               102.9268               146.1847
 Red. masses --      3.1453                 2.6296                 2.9437
 Frc consts  --      0.0018                 0.0164                 0.0371
 IR Inten    --      1.2427                 2.7643                 0.8129

                      4                      5                      6
                      A                      A                      A
 Frequencies --    160.1637               205.1687               253.1460
 Red. masses --      3.0382                 1.2405                 2.6579
 Frc consts  --      0.0459                 0.0308                 0.1004
 IR Inten    --      0.1613                 0.6136                 0.2136

                      7                      8                      9
                      A                      A                      A
 Frequencies --    295.9938               380.9271               409.2797
 Red. masses --      3.5380                 4.6571                 4.5182
 Frc consts  --      0.1826                 0.3982                 0.4459
 IR Inten    --      7.5837                 0.8560                 4.1915

                     10                     11                     12
                      A                      A                      A
 Frequencies --    521.8345               569.0235               614.5194
 Red. masses --      3.9218                 5.9380                 2.3921
 Frc consts  --      0.6292                 1.1328                 0.5322
 IR Inten    --      5.8744                 8.5439                 3.3297

                     13                     14                     15
                      A                      A                      A
 Frequencies --    630.7445               671.0675               753.2678
 Red. masses --      1.2486                 1.2660                 4.2641
 Frc consts  --      0.2927                 0.3359                 1.4255
 IR Inten    --     38.0217                34.6459                15.0129

                     16                     17                     18
                      A                      A                      A
 Frequencies --    862.8368               888.2006               945.4119
 Red. masses --      2.1711                 2.1385                 4.8489
 Frc consts  --      0.9523                 0.9940                 2.5535
 IR Inten    --      3.2472                 8.0003                21.4259

                     19                     20                     21
                      A                      A                      A
 Frequencies --    957.3060               970.7066               997.9140
 Red. masses --      2.6970                 3.3816                 2.7163
 Frc consts  --      1.4562                 1.8773                 1.5938
 IR Inten    --     15.2341                27.6665                12.5005

                     22                     23                     24
                      A                      A                      A
 Frequencies --   1049.6208              1094.8908              1112.8295
 Red. masses --      3.0249                 6.1960                 2.4172
 Frc consts  --      1.9634                 4.3762                 1.7636
 IR Inten    --      3.3802                93.7267                43.1017

                     25                     26                     27
                      A                      A                      A
 Frequencies --   1156.1907              1185.2343              1214.6200
 Red. masses --      4.3187                 1.2969                 1.3418
 Frc consts  --      3.4014                 1.0734                 1.1663
 IR Inten    --    153.8646                 3.2575                12.9547

                     28                     29                     30
                      A                      A                      A
 Frequencies --   1222.9086              1243.8535              1264.5030
 Red. masses --      1.3821                 1.2990                 1.4187
 Frc consts  --      1.2178                 1.1841                 1.3366
 IR Inten    --      2.7863                23.1264                 2.4277

                     31                     32                     33
                      A                      A                      A
 Frequencies --   1296.9313              1316.6554              1346.7835
 Red. masses --      1.2640                 1.3785                 1.2165
 Frc consts  --      1.2527                 1.4080                 1.3000
 IR Inten    --      4.8390                 0.2432                18.6956

                     34                     35                     36
                      A                      A                      A
 Frequencies --   1391.9635              1398.3535              1476.1504
 Red. masses --      1.3345                 1.2862                 1.1013
 Frc consts  --      1.5235                 1.4819                 1.4138
 IR Inten    --      3.8471                26.2106                 0.6096

                     37                     38                     39
                      A                      A                      A
 Frequencies --   1480.8962              1491.0926              1510.8664
 Red. masses --      1.1042                 1.0817                 1.0616
 Frc consts  --      1.4267                 1.4169                 1.4277
 IR Inten    --      4.4175                 1.5370                 7.6894

                     40                     41                     42
                      A                      A                      A
 Frequencies --   1514.1657              2231.3791              2975.9526
 Red. masses --      1.0956                 5.9035                 1.0377
 Frc consts  --      1.4800                17.3183                 5.4144
 IR Inten    --      0.2470                 0.7068                54.1647

                     43                     44                     45
                      A                      A                      A
 Frequencies --   2992.7474              3017.3128              3024.9128
 Red. masses --      1.0705                 1.0854                 1.1013
 Frc consts  --      5.6490                 5.8222                 5.9370
 IR Inten    --     49.2218                47.8129                34.6065

                     46                     47                     48
                      A                      A                      A
 Frequencies --   3064.5553              3080.9601              3103.1726
 Red. masses --      1.0602                 1.0844                 1.0935
 Frc consts  --      5.8663                 6.0648                 6.2043
 IR Inten    --     18.2903                 8.4033                25.9765

                     49                     50                     51
                      A                      A                      A
 Frequencies --   3117.3394              3120.2880              3501.5121
 Red. masses --      1.0964                 1.1060                 1.1623
 Frc consts  --      6.2777                 6.3445                 8.3962
 IR Inten    --     24.3275                26.8873                63.3161

 - Thermochemistry -
 -------------------
 Temperature   298.150 Kelvin.  Pressure   1.00000 Atm.
 Atom     1 has atomic number  6 and mass  12.00000

 Molecular mass:   126.06808 amu.
 Principal axes and moments of inertia in atomic units:
                           1         2         3
     Eigenvalues --   729.297951445.575651845.77508
           X            0.99995   0.00959   0.00241
           Y           -0.00955   0.99981  -0.01670
           Z           -0.00257   0.01668   0.99986
 This molecule is an asymmetric top.
 Rotational symmetry number  1.
 Warning -- assumption of classical behavior for rotation
           may cause significant error
 Rotational temperatures (Kelvin)      0.11876     0.05992     0.04693
 Rotational constants (GHZ):           2.47463     1.24846     0.97777
 Zero-point vibrational energy     414905.6 (Joules/Mol)
                                   99.16482 (Kcal/Mol)
 Warning -- explicit consideration of  12 degrees of freedom as
           vibrations may cause significant error
 Vibrational temperatures:     45.37   148.09   210.33   230.44   295.19
          (Kelvin)            364.22   425.87   548.07   588.86   750.80
                              818.70   884.16   907.50   965.52  1083.78
                             1241.43  1277.92  1360.24  1377.35  1396.63
                             1435.77  1510.17  1575.30  1601.11  1663.50
                             1705.29  1747.57  1759.49  1789.63  1819.34
                             1865.99  1894.37  1937.72  2002.72  2011.92
                             2123.85  2130.68  2145.35  2173.80  2178.54
                             3210.45  4281.73  4305.89  4341.23  4352.17
                             4409.21  4432.81  4464.77  4485.15  4489.39
                             5037.89

 Zero-point correction=                           0.158029 (Hartree/Particle)
 Thermal correction to Energy=                    0.167262
 Thermal correction to Enthalpy=                  0.168207
 Thermal correction to Gibbs Free Energy=         0.123101
 Sum of electronic and zero-point Energies=           -422.979158
 Sum of electronic and thermal Energies=              -422.969925
 Sum of electronic and thermal Enthalpies=            -422.968980
 Sum of electronic and thermal Free Energies=         -423.014086

                     E (Thermal)             CV                S
                      KCal/Mol        Cal/Mol-Kelvin    Cal/Mol-Kelvin
 Total                  104.959             33.613             94.932
 Electronic               0.000              0.000              0.000
 Translational            0.889              2.981             40.409
 Rotational               0.889              2.981             29.055
 Vibrational            103.181             27.651             25.469
 Vibration     1          0.594              1.983              5.730
 Vibration     2          0.605              1.947              3.398
 Vibration     3          0.617              1.907              2.721
 Vibration     4          0.622              1.891              2.548
 Vibration     5          0.640              1.833              2.086
 Vibration     6          0.664              1.757              1.709
 Vibration     7          0.690              1.681              1.439
 Vibration     8          0.751              1.511              1.035
 Vibration     9          0.774              1.450              0.929
 Vibration    10          0.877              1.202              0.606
 Vibration    11          0.925              1.098              0.506
 Vibration    12          0.974              1.001              0.425

 Optimization completed.
    -- Stationary point found.
 Normal termination of Gaussian 09 at Tue Jan 28 12:41:11 2020.
