 Gaussian 09, Revision D.01,
 Gaussian 09:  ES64L-G09RevD.01 24-Apr-2013

 -----------------------------
 # b3lyp 6-31G(2df,p) opt Freq
 -----------------------------

 -----
 titel
 -----
 Symbolic Z-matrix:
 Charge =  0 Multiplicity = 1

 SCF Done:  E(RB3LYP) =  -423.126674552     A.U. after   14 cycles
 Optimization completed.
    -- Stationary point found.
 Normal termination of Gaussian 09 at Tue Jan 28 08:12:24 2020.

 ----------------------------------------------------------------------
 #N Geom=AllCheck Guess=TCheck SCRF=Check GenChk RB3LYP/6-31G(2df,p) Fr
 eq
 ----------------------------------------------------------------------

 Structure from the checkpoint file:  "/scratch/puck/g09_dd418c18-94ff-469a-8dd8-ab435fb54be8/Gau-186260.chk"
 -----
 titel
 -----
 Charge =  0 Multiplicity = 1

                         Standard orientation:
 ---------------------------------------------------------------------
 Center     Atomic      Atomic             Coordinates (Angstroms)
 Number     Number       Type             X           Y           Z
 ---------------------------------------------------------------------
      1          6           0       -2.529560   -1.661147   -0.105191
      2          6           0       -1.776249   -0.414729    0.393043
      3          6           0       -2.308038    0.870084   -0.287068
      4          8           0       -1.666609    2.038922    0.168175
      5          6           0       -0.335148   -0.518982    0.169598
      6          6           0        0.851955   -0.543781   -0.043520
      7          6           0        2.263651   -0.599482   -0.313075
      8          6           0        3.258582   -0.045098    0.626822
      9          8           0        2.932786    0.647842   -0.571159
     10          1           0       -2.389808   -1.795941   -1.181986
     11          1           0       -2.171318   -2.562741    0.397574
     12          1           0       -3.601092   -1.559654    0.093485
     13          1           0       -1.949652   -0.299790    1.471349
     14          1           0       -2.223992    0.753862   -1.379444
     15          1           0       -3.369390    0.984210   -0.043276
     16          1           0       -0.725909    1.942093   -0.023854
     17          1           0        2.585613   -1.410469   -0.965513
     18          1           0        2.910271    0.417531    1.548143
     19          1           0        4.254705   -0.484410    0.663734
 ---------------------------------------------------------------------

 SCF Done:  E(RB3LYP) =  -423.126674552     A.U. after    1 cycles

 The electronic state is 1-A.
 Alpha  occ. eigenvalues --  -19.16210 -19.13197 -10.26484 -10.24544 -10.23173
 Alpha  occ. eigenvalues --  -10.21546 -10.18925 -10.18898 -10.18443  -1.08172
 Alpha  occ. eigenvalues --   -1.01643  -0.81653  -0.75914  -0.68921  -0.67839
 Alpha  occ. eigenvalues --   -0.65598  -0.61512  -0.53749  -0.51281  -0.50123
 Alpha  occ. eigenvalues --   -0.48730  -0.43774  -0.42678  -0.41844  -0.40841
 Alpha  occ. eigenvalues --   -0.39635  -0.38572  -0.36884  -0.34497  -0.32671
 Alpha  occ. eigenvalues --   -0.28587  -0.27597  -0.26784  -0.25123
 Alpha virt. eigenvalues --    0.01719   0.03403   0.09620   0.10035   0.10588
 Alpha virt. eigenvalues --    0.12880   0.13316   0.13985   0.14372   0.15821
 Alpha virt. eigenvalues --    0.16936   0.17346   0.18294   0.19578   0.21958

 Mulliken charges:
               1
     1  C   -0.394228
     2  C   -0.156211
     3  C   -0.046132
     4  O   -0.420591
     5  C    0.104235
     6  C    0.056721
     7  C   -0.115757
     8  C   -0.160038
     9  O   -0.216891
    10  H    0.128749
    11  H    0.129022
    12  H    0.120004
    13  H    0.113869
    14  H    0.092518
    15  H    0.109160
    16  H    0.290491
    17  H    0.118403
    18  H    0.125681
    19  H    0.120996
 Sum of Mulliken charges =   0.00000

 Dipole moment (field-independent basis, Debye):
    X=              0.0914    Y=             -2.5513    Z=              0.5735  Tot=              2.6166
 Quadrupole moment (field-independent basis, Debye-Ang):
   XX=            -47.9823   YY=            -57.5324   ZZ=            -52.8285
   XY=              0.2832   XZ=              3.6389   YZ=              0.5091

  Exact polarizability: 118.912   2.644  67.656   0.968   2.620  61.536
 Approx polarizability: 163.124   4.247  96.787  -5.082   2.326  94.348

                      1                      2                      3
                      A                      A                      A
 Frequencies --     11.2423                56.9999               103.4659
 Red. masses --      3.5519                 6.1630                 3.1439
 Frc consts  --      0.0003                 0.0118                 0.0198
 IR Inten    --      2.3760                 0.2133                 2.0957

                      4                      5                      6
                      A                      A                      A
 Frequencies --    140.7190               183.7317               200.2041
 Red. masses --      2.8270                 4.1172                 2.1995
 Frc consts  --      0.0330                 0.0819                 0.0519
 IR Inten    --      4.1047                 1.4577                 0.9012

                      7                      8                      9
                      A                      A                      A
 Frequencies --    227.1098               268.7549               398.0797
 Red. masses --      1.2311                 3.5218                 1.2783
 Frc consts  --      0.0374                 0.1499                 0.1194
 IR Inten    --      0.6463                 0.6283                91.9026

                     10                     11                     12
                      A                      A                      A
 Frequencies --    428.8824               463.7895               495.7761
 Red. masses --      3.2117                 4.9479                 3.6749
 Frc consts  --      0.3481                 0.6271                 0.5322
 IR Inten    --     33.5628                 5.6804                 3.3330

                     13                     14                     15
                      A                      A                      A
 Frequencies --    539.5869               581.5725               690.8964
 Red. masses --      4.6035                 4.5308                 2.5231
 Frc consts  --      0.7897                 0.9029                 0.7096
 IR Inten    --      5.9077                 3.0944                 8.2597

                     16                     17                     18
                      A                      A                      A
 Frequencies --    828.8863               854.7535               904.8637
 Red. masses --      7.1957                 2.4023                 2.1044
 Frc consts  --      2.9128                 1.0341                 1.0152
 IR Inten    --     14.3294                17.1057                28.2094

                     19                     20                     21
                      A                      A                      A
 Frequencies --    935.8115               974.8289              1041.6371
 Red. masses --      1.3715                 2.1330                 1.9239
 Frc consts  --      0.7077                 1.1942                 1.2299
 IR Inten    --      2.8766                14.0697                 3.3291

                     22                     23                     24
                      A                      A                      A
 Frequencies --   1081.0625              1087.1658              1103.6437
 Red. masses --      2.7944                 1.3789                 2.1320
 Frc consts  --      1.9241                 0.9603                 1.5300
 IR Inten    --     62.1768                21.7906                19.9003

                     25                     26                     27
                      A                      A                      A
 Frequencies --   1128.8994              1154.1607              1161.9340
 Red. masses --      2.1907                 1.4328                 1.3649
 Frc consts  --      1.6449                 1.1245                 1.0857
 IR Inten    --      4.9408                 0.8111                 3.9226

                     28                     29                     30
                      A                      A                      A
 Frequencies --   1190.9446              1215.4126              1281.3949
 Red. masses --      2.0457                 1.2136                 1.6620
 Frc consts  --      1.7096                 1.0563                 1.6079
 IR Inten    --     13.2068                 6.2532                 8.4179

                     31                     32                     33
                      A                      A                      A
 Frequencies --   1296.7590              1358.3448              1384.5198
 Red. masses --      1.2900                 1.4750                 1.2335
 Frc consts  --      1.2781                 1.6035                 1.3932
 IR Inten    --      0.8048                15.8112                 1.4200

                     34                     35                     36
                      A                      A                      A
 Frequencies --   1404.7613              1407.9381              1429.9059
 Red. masses --      1.2667                 1.8061                 1.2232
 Frc consts  --      1.4728                 2.1094                 1.4735
 IR Inten    --      9.8576                43.2119                55.8982

                     37                     38                     39
                      A                      A                      A
 Frequencies --   1492.2856              1500.0451              1505.1029
 Red. masses --      1.0505                 1.0517                 1.0836
 Frc consts  --      1.3783                 1.3943                 1.4463
 IR Inten    --      4.6944                 2.3940                 1.3611

                     40                     41                     42
                      A                      A                      A
 Frequencies --   1519.2557              2353.9728              2977.5363
 Red. masses --      1.2338                11.8732                 1.0689
 Frc consts  --      1.6779                38.7633                 5.5834
 IR Inten    --      1.6398                10.5766                48.7324

                     43                     44                     45
                      A                      A                      A
 Frequencies --   3022.0520              3041.8238              3077.2128
 Red. masses --      1.0812                 1.0349                 1.0944
 Frc consts  --      5.8176                 5.6419                 6.1058
 IR Inten    --     15.5749                25.8912                35.9009

                     46                     47                     48
                      A                      A                      A
 Frequencies --   3086.3302              3113.5103              3115.1169
 Red. masses --      1.0499                 1.1020                 1.0867
 Frc consts  --      5.8925                 6.2939                 6.2132
 IR Inten    --     27.2599                27.2921                19.3347

                     49                     50                     51
                      A                      A                      A
 Frequencies --   3123.5124              3180.2715              3782.6993
 Red. masses --      1.1020                 1.1201                 1.0656
 Frc consts  --      6.3344                 6.6745                 8.9838
 IR Inten    --     18.8758                22.9294                28.7518

 - Thermochemistry -
 -------------------
 Temperature   298.150 Kelvin.  Pressure   1.00000 Atm.
 Atom     1 has atomic number  6 and mass  12.00000

 Molecular mass:   126.06808 amu.
 Principal axes and moments of inertia in atomic units:
                           1         2         3
     Eigenvalues --   617.394162362.267762806.13997
           X            0.99988   0.01077   0.01105
           Y           -0.01087   0.99990   0.00890
           Z           -0.01096  -0.00902   0.99990
 This molecule is an asymmetric top.
 Rotational symmetry number  1.
 Warning -- assumption of classical behavior for rotation
           may cause significant error
 Rotational temperatures (Kelvin)      0.14029     0.03667     0.03087
 Rotational constants (GHZ):           2.92316     0.76399     0.64314
 Zero-point vibrational energy     412168.3 (Joules/Mol)
                                   98.51060 (Kcal/Mol)
 Warning -- explicit consideration of  14 degrees of freedom as
           vibrations may cause significant error
 Vibrational temperatures:     16.18    82.01   148.86   202.46   264.35
          (Kelvin)            288.05   326.76   386.68   572.75   617.07
                              667.29   713.31   776.34   836.75   994.04
                             1192.58  1229.80  1301.90  1346.42  1402.56
                             1498.68  1555.41  1564.19  1587.90  1624.23
                             1660.58  1671.76  1713.50  1748.71  1843.64
                             1865.74  1954.35  1992.01  2021.14  2025.71
                             2057.31  2147.06  2158.23  2165.50  2185.87
                             3386.84  4284.01  4348.05  4376.50  4427.42
                             4440.54  4479.64  4481.95  4494.03  4575.70
                             5442.45

 Zero-point correction=                           0.156987 (Hartree/Particle)
 Thermal correction to Energy=                    0.167189
 Thermal correction to Enthalpy=                  0.168134
 Thermal correction to Gibbs Free Energy=         0.119343
 Sum of electronic and zero-point Energies=           -422.969688
 Sum of electronic and thermal Energies=              -422.959485
 Sum of electronic and thermal Enthalpies=            -422.958541
 Sum of electronic and thermal Free Energies=         -423.007331

                     E (Thermal)             CV                S
                      KCal/Mol        Cal/Mol-Kelvin    Cal/Mol-Kelvin
 Total                  104.913             35.558            102.688
 Electronic               0.000              0.000              0.000
 Translational            0.889              2.981             40.409
 Rotational               0.889              2.981             29.794
 Vibrational            103.135             29.596             32.486
 Vibration     1          0.593              1.987              7.778
 Vibration     2          0.596              1.975              4.558
 Vibration     3          0.605              1.946              3.388
 Vibration     4          0.615              1.913              2.794
 Vibration     5          0.631              1.862              2.290
 Vibration     6          0.638              1.840              2.131
 Vibration     7          0.651              1.800              1.902
 Vibration     8          0.673              1.731              1.604
 Vibration     9          0.764              1.474              0.970
 Vibration    10          0.790              1.407              0.862
 Vibration    11          0.821              1.330              0.755
 Vibration    12          0.851              1.259              0.669
 Vibration    13          0.895              1.163              0.566
 Vibration    14          0.938              1.071              0.482

 Optimization completed on the basis of negligible forces.
    -- Stationary point found.
 Normal termination of Gaussian 09 at Tue Jan 28 08:39:52 2020.
