 Gaussian 09, Revision D.01,
 Gaussian 09:  ES64L-G09RevD.01 24-Apr-2013

 -----------------------------
 # b3lyp 6-31G(2df,p) opt Freq
 -----------------------------

 -----
 titel
 -----
 Symbolic Z-matrix:
 Charge =  0 Multiplicity = 1

 SCF Done:  E(RB3LYP) =  -423.130926817     A.U. after   14 cycles
 Optimization completed.
    -- Stationary point found.
 Normal termination of Gaussian 09 at Tue Jan 28 12:08:25 2020.

 ----------------------------------------------------------------------
 #N Geom=AllCheck Guess=TCheck SCRF=Check GenChk RB3LYP/6-31G(2df,p) Fr
 eq
 ----------------------------------------------------------------------

 Structure from the checkpoint file:  "/scratch/puck/g09_df907219-cb2a-4076-a190-7f6ee2333144/Gau-138090.chk"
 -----
 titel
 -----
 Charge =  0 Multiplicity = 1

                         Standard orientation:
 ---------------------------------------------------------------------
 Center     Atomic      Atomic             Coordinates (Angstroms)
 Number     Number       Type             X           Y           Z
 ---------------------------------------------------------------------
      1          8           0        2.080095   -0.744942   -0.601653
      2          6           0        1.317315   -1.468715    0.371651
      3          6           0        0.461666   -0.481739    1.159724
      4          6           0       -0.644349    0.160233    0.324447
      5          6           0       -1.106298    1.576361    0.681973
      6          6           0       -0.277458    1.371622   -0.543202
      7          8           0        1.026642    1.839898   -0.520488
      8          6           0       -1.628018   -0.747165   -0.198013
      9          6           0       -2.440337   -1.520449   -0.637154
     10          1           0        2.384670   -1.355226   -1.278216
     11          1           0        0.671861   -2.208466   -0.119236
     12          1           0        1.993541   -2.001494    1.055111
     13          1           0        0.017364   -1.012772    2.009156
     14          1           0        1.109801    0.300834    1.563770
     15          1           0       -2.159880    1.804429    0.573462
     16          1           0       -0.610901    2.042626    1.526408
     17          1           0       -0.784277    1.427604   -1.506427
     18          1           0        1.593840    1.095294   -0.780361
     19          1           0       -3.165034   -2.193362   -1.023105
 ---------------------------------------------------------------------

 SCF Done:  E(RB3LYP) =  -423.130926817     A.U. after    1 cycles

 The electronic state is 1-A.
 Alpha  occ. eigenvalues --  -19.15735 -19.12487 -10.23767 -10.23264 -10.21263
 Alpha  occ. eigenvalues --  -10.19174 -10.18558 -10.17873 -10.16830  -1.03522
 Alpha  occ. eigenvalues --   -1.01470  -0.86096  -0.76279  -0.73659  -0.64775
 Alpha  occ. eigenvalues --   -0.60552  -0.58548  -0.54067  -0.51830  -0.50618
 Alpha  occ. eigenvalues --   -0.49242  -0.46711  -0.41872  -0.41743  -0.39950
 Alpha  occ. eigenvalues --   -0.38012  -0.36980  -0.34926  -0.33318  -0.29936
 Alpha  occ. eigenvalues --   -0.28728  -0.27597  -0.25514  -0.23009
 Alpha virt. eigenvalues --    0.05131   0.05422   0.06056   0.11309   0.11490
 Alpha virt. eigenvalues --    0.13114   0.13384   0.14114   0.16254   0.17317
 Alpha virt. eigenvalues --    0.17563   0.18693   0.18904   0.20027   0.22584

 Mulliken charges:
               1
     1  O   -0.414471
     2  C   -0.086009
     3  C   -0.288885
     4  C    0.092245
     5  C   -0.351336
     6  C    0.091586
     7  O   -0.431973
     8  C    0.291866
     9  C   -0.466219
    10  H    0.296577
    11  H    0.112934
    12  H    0.095943
    13  H    0.109463
    14  H    0.124211
    15  H    0.122204
    16  H    0.123746
    17  H    0.092011
    18  H    0.296915
    19  H    0.189193
 Sum of Mulliken charges =   0.00000

 Dipole moment (field-independent basis, Debye):
    X=              0.4287    Y=             -2.6255    Z=             -0.2172  Tot=              2.6691
 Quadrupole moment (field-independent basis, Debye-Ang):
   XX=            -50.8022   YY=            -53.2173   ZZ=            -50.1912
   XY=             -4.7983   XZ=             -0.5528   YZ=              3.2851

  Exact polarizability:  84.457   8.145  84.567   4.764   5.306  66.131
 Approx polarizability: 120.976  22.945 126.837   8.837  11.416  99.560

                      1                      2                      3
                      A                      A                      A
 Frequencies --     77.4960               137.8191               149.5762
 Red. masses --      4.4088                 3.9754                 3.3762
 Frc consts  --      0.0156                 0.0445                 0.0445
 IR Inten    --      0.3515                 2.3610                 6.6935

                      4                      5                      6
                      A                      A                      A
 Frequencies --    182.7491               197.4396               237.7468
 Red. masses --      1.2754                 4.1832                 2.3765
 Frc consts  --      0.0251                 0.0961                 0.0791
 IR Inten    --     68.4919                22.0622                 6.7539

                      7                      8                      9
                      A                      A                      A
 Frequencies --    248.5017               338.5035               413.1194
 Red. masses --      3.9633                 2.7639                 2.9345
 Frc consts  --      0.1442                 0.1866                 0.2951
 IR Inten    --      1.2185                 0.8673                 9.5932

                     10                     11                     12
                      A                      A                      A
 Frequencies --    456.4264               499.0636               529.3608
 Red. masses --      3.6326                 2.6501                 4.3603
 Frc consts  --      0.4459                 0.3889                 0.7199
 IR Inten    --      5.3700                 5.2009                 6.9332

                     13                     14                     15
                      A                      A                      A
 Frequencies --    559.0790               577.7892               634.0489
 Red. masses --      1.7214                 2.0438                 1.0901
 Frc consts  --      0.3170                 0.4020                 0.2582
 IR Inten    --     33.7513                13.4355               115.7134

                     16                     17                     18
                      A                      A                      A
 Frequencies --    646.0554               682.4250               815.3767
 Red. masses --      1.2273                 2.8929                 3.1018
 Frc consts  --      0.3018                 0.7938                 1.2150
 IR Inten    --     42.5948                 0.9886                 7.2478

                     19                     20                     21
                      A                      A                      A
 Frequencies --    866.2894               896.7073               922.5654
 Red. masses --      2.1430                 2.4311                 1.6675
 Frc consts  --      0.9476                 1.1517                 0.8362
 IR Inten    --     10.6781                16.5989                13.1832

                     22                     23                     24
                      A                      A                      A
 Frequencies --    972.4376              1016.5218              1045.0881
 Red. masses --      2.3481                 1.6294                 2.0569
 Frc consts  --      1.3082                 0.9920                 1.3237
 IR Inten    --      1.9926                 7.5315                 0.2227

                     25                     26                     27
                      A                      A                      A
 Frequencies --   1056.2429              1082.0028              1113.3579
 Red. masses --      1.2989                 3.9736                 1.6083
 Frc consts  --      0.8538                 2.7409                 1.1746
 IR Inten    --      4.0260                65.5252                 9.8487

                     28                     29                     30
                      A                      A                      A
 Frequencies --   1174.2030              1200.2274              1259.8773
 Red. masses --      1.5705                 1.9006                 1.4376
 Frc consts  --      1.2758                 1.6131                 1.3444
 IR Inten    --      6.4887                64.4738                25.3079

                     31                     32                     33
                      A                      A                      A
 Frequencies --   1278.4830              1283.1539              1319.9803
 Red. masses --      1.8987                 1.6112                 1.2526
 Frc consts  --      1.8285                 1.5630                 1.2859
 IR Inten    --     11.8170                 4.0603                12.5964

                     34                     35                     36
                      A                      A                      A
 Frequencies --   1374.6210              1377.4508              1430.5235
 Red. masses --      1.2299                 1.4968                 1.3284
 Frc consts  --      1.3693                 1.6733                 1.6017
 IR Inten    --    105.9365                 7.9599                 7.3537

                     37                     38                     39
                      A                      A                      A
 Frequencies --   1449.2943              1462.7885              1476.7727
 Red. masses --      1.3425                 1.1162                 1.4697
 Frc consts  --      1.6614                 1.4072                 1.8884
 IR Inten    --      7.7965                 3.0168                16.5168

                     40                     41                     42
                      A                      A                      A
 Frequencies --   1516.3161              2224.0686              2999.4983
 Red. masses --      1.0862                 6.0625                 1.0592
 Frc consts  --      1.4714                17.6685                 5.6149
 IR Inten    --      6.8841                19.1350                53.7144

                     43                     44                     45
                      A                      A                      A
 Frequencies --   3042.6221              3051.6880              3102.3473
 Red. masses --      1.0862                 1.0802                 1.0914
 Frc consts  --      5.9247                 5.9271                 6.1892
 IR Inten    --     11.7008                43.1193                19.1613

                     46                     47                     48
                      A                      A                      A
 Frequencies --   3103.5590              3139.6832              3235.1692
 Red. masses --      1.0960                 1.0545                 1.1180
 Frc consts  --      6.2197                 6.1245                 6.8942
 IR Inten    --     22.3699                 7.2608                 4.5933

                     49                     50                     51
                      A                      A                      A
 Frequencies --   3502.7828              3664.9045              3847.6138
 Red. masses --      1.1587                 1.0657                 1.0667
 Frc consts  --      8.3761                 8.4333                 9.3037
 IR Inten    --     79.8765               219.9304                34.9530

 - Thermochemistry -
 -------------------
 Temperature   298.150 Kelvin.  Pressure   1.00000 Atm.
 Atom     1 has atomic number  8 and mass  15.99491

 Molecular mass:   126.06808 amu.
 Principal axes and moments of inertia in atomic units:
                           1         2         3
     Eigenvalues --   947.273301154.351241676.42544
           X            0.99462  -0.10323   0.00825
           Y            0.10314   0.99461   0.01099
           Z           -0.00934  -0.01008   0.99991
 This molecule is an asymmetric top.
 Rotational symmetry number  1.
 Warning -- assumption of classical behavior for rotation
           may cause significant error
 Rotational temperatures (Kelvin)      0.09143     0.07503     0.05167
 Rotational constants (GHZ):           1.90520     1.56342     1.07654
 Zero-point vibrational energy     411942.6 (Joules/Mol)
                                   98.45663 (Kcal/Mol)
 Warning -- explicit consideration of  14 degrees of freedom as
           vibrations may cause significant error
 Vibrational temperatures:    111.50   198.29   215.21   262.93   284.07
          (Kelvin)            342.06   357.54   487.03   594.39   656.70
                              718.04   761.63   804.39   831.31   912.25
                              929.53   981.86  1173.14  1246.40  1290.16
                             1327.36  1399.12  1462.55  1503.65  1519.70
                             1556.76  1601.87  1689.41  1726.86  1812.68
                             1839.45  1846.17  1899.15  1977.77  1981.84
                             2058.20  2085.21  2104.62  2124.74  2181.64
                             3199.93  4315.60  4377.65  4390.69  4463.58
                             4465.32  4517.30  4654.68  5039.72  5272.97
                             5535.85

 Zero-point correction=                           0.156901 (Hartree/Particle)
 Thermal correction to Energy=                    0.166633
 Thermal correction to Enthalpy=                  0.167577
 Thermal correction to Gibbs Free Energy=         0.122644
 Sum of electronic and zero-point Energies=           -422.974026
 Sum of electronic and thermal Energies=              -422.964294
 Sum of electronic and thermal Enthalpies=            -422.963350
 Sum of electronic and thermal Free Energies=         -423.008283

                     E (Thermal)             CV                S
                      KCal/Mol        Cal/Mol-Kelvin    Cal/Mol-Kelvin
 Total                  104.564             36.620             94.569
 Electronic               0.000              0.000              0.000
 Translational            0.889              2.981             40.409
 Rotational               0.889              2.981             28.996
 Vibrational            102.786             30.658             25.164
 Vibration     1          0.599              1.964              3.953
 Vibration     2          0.614              1.916              2.834
 Vibration     3          0.618              1.903              2.678
 Vibration     4          0.630              1.863              2.300
 Vibration     5          0.637              1.843              2.157
 Vibration     6          0.656              1.783              1.820
 Vibration     7          0.662              1.765              1.741
 Vibration     8          0.719              1.599              1.219
 Vibration     9          0.777              1.442              0.916
 Vibration    10          0.815              1.347              0.777
 Vibration    11          0.855              1.252              0.660
 Vibration    12          0.884              1.185              0.589
 Vibration    13          0.915              1.120              0.526
 Vibration    14          0.934              1.079              0.489

 Optimization completed.
    -- Stationary point found.
 Normal termination of Gaussian 09 at Tue Jan 28 12:52:52 2020.
