 Gaussian 09, Revision D.01,
 Gaussian 09:  ES64L-G09RevD.01 24-Apr-2013

 -----------------------------
 # b3lyp 6-31G(2df,p) opt Freq
 -----------------------------

 -----
 titel
 -----
 Symbolic Z-matrix:
 Charge =  0 Multiplicity = 1

 SCF Done:  E(RB3LYP) =  -423.179125348     A.U. after   14 cycles
 Optimization completed.
    -- Stationary point found.
 Normal termination of Gaussian 09 at Mon Jan 27 22:03:13 2020.

 ----------------------------------------------------------------------
 #N Geom=AllCheck Guess=TCheck SCRF=Check GenChk RB3LYP/6-31G(2df,p) Fr
 eq
 ----------------------------------------------------------------------

 Structure from the checkpoint file:  "/scratch/puck/g09_c4d08524-9b5f-4327-805b-1af0013cea64/Gau-62714.chk"
 -----
 titel
 -----
 Charge =  0 Multiplicity = 1

                         Standard orientation:
 ---------------------------------------------------------------------
 Center     Atomic      Atomic             Coordinates (Angstroms)
 Number     Number       Type             X           Y           Z
 ---------------------------------------------------------------------
      1          6           0        3.022703    0.085812   -0.130902
      2          6           0        1.527760    0.086929   -0.078657
      3          6           0        0.718686    1.153052   -0.031834
      4          6           0       -0.712389    0.752103    0.098153
      5          8           0       -1.701346    1.380477   -0.667961
      6          6           0       -1.095746    0.010382    1.370793
      7          6           0       -0.708523   -0.758831    0.121298
      8          8           0       -1.697704   -1.463015   -0.557532
      9          6           0        0.735728   -1.213486   -0.041666
     10          1           0        3.454116   -0.392542    0.757699
     11          1           0        3.386238   -0.483282   -0.996114
     12          1           0        3.423953    1.100770   -0.196106
     13          1           0        1.041315    2.188695   -0.047660
     14          1           0       -2.191360    1.987605   -0.104853
     15          1           0       -0.429293    0.062210    2.226076
     16          1           0       -2.156125   -0.036063    1.601685
     17          1           0       -2.184014   -0.810167   -1.080130
     18          1           0        1.067355   -1.869516    0.773043
     19          1           0        0.850911   -1.783172   -0.972812
 ---------------------------------------------------------------------

 SCF Done:  E(RB3LYP) =  -423.179125348     A.U. after    1 cycles

 The electronic state is 1-A.
 Alpha  occ. eigenvalues --  -19.15538 -19.13293 -10.23457 -10.22972 -10.18853
 Alpha  occ. eigenvalues --  -10.18251 -10.18196 -10.18099 -10.17384  -1.04465
 Alpha  occ. eigenvalues --   -1.01415  -0.86758  -0.78281  -0.70263  -0.69594
 Alpha  occ. eigenvalues --   -0.60352  -0.56578  -0.53964  -0.52264  -0.47174
 Alpha  occ. eigenvalues --   -0.46090  -0.44384  -0.42027  -0.41342  -0.40145
 Alpha  occ. eigenvalues --   -0.38263  -0.37216  -0.37029  -0.34406  -0.33868
 Alpha  occ. eigenvalues --   -0.29705  -0.28315  -0.23820  -0.22159
 Alpha virt. eigenvalues --    0.01869   0.07011   0.10220   0.11176   0.12749
 Alpha virt. eigenvalues --    0.13617   0.14819   0.15197   0.16261   0.17500
 Alpha virt. eigenvalues --    0.17751   0.19240   0.21323   0.21983   0.24445

 Mulliken charges:
               1
     1  C   -0.485895
     2  C    0.315046
     3  C   -0.248483
     4  C    0.274606
     5  O   -0.474037
     6  C   -0.400288
     7  C    0.391636
     8  O   -0.484315
     9  C   -0.375125
    10  H    0.126177
    11  H    0.126652
    12  H    0.123855
    13  H    0.087627
    14  H    0.290455
    15  H    0.109023
    16  H    0.108926
    17  H    0.287937
    18  H    0.110012
    19  H    0.116191
 Sum of Mulliken charges =   0.00000

 Dipole moment (field-independent basis, Debye):
    X=              0.5132    Y=              1.6251    Z=              0.9897  Tot=              1.9707
 Quadrupole moment (field-independent basis, Debye-Ang):
   XX=            -48.4548   YY=            -53.4849   ZZ=            -53.6498
   XY=             -5.2413   XZ=             -1.1104   YZ=              1.3032

  Exact polarizability:  92.737  -6.270  77.159  -2.536   1.345  62.387
 Approx polarizability: 122.781 -15.136 124.053  -1.435   2.085  96.583

                      1                      2                      3
                      A                      A                      A
 Frequencies --    139.1391               171.3826               212.3162
 Red. masses --      2.8663                 1.1566                 4.1215
 Frc consts  --      0.0327                 0.0200                 0.1095
 IR Inten    --      0.3628                 1.4123                 2.3414

                      4                      5                      6
                      A                      A                      A
 Frequencies --    218.5440               253.8530               277.3192
 Red. masses --      3.1846                 1.4380                 1.7461
 Frc consts  --      0.0896                 0.0546                 0.0791
 IR Inten    --     10.3192                24.7669                14.6509

                      7                      8                      9
                      A                      A                      A
 Frequencies --    352.1185               382.9783               416.0024
 Red. masses --      1.2546                 3.2335                 2.3483
 Frc consts  --      0.0916                 0.2794                 0.2394
 IR Inten    --     81.6089                 0.3233                17.0595

                     10                     11                     12
                      A                      A                      A
 Frequencies --    429.4927               476.3473               539.7821
 Red. masses --      2.4454                 2.1089                 3.8111
 Frc consts  --      0.2658                 0.2819                 0.6542
 IR Inten    --      5.8557                 0.2178                 3.8784

                     13                     14                     15
                      A                      A                      A
 Frequencies --    576.3275               590.0859               765.5284
 Red. masses --      3.4815                 3.2925                 3.8898
 Frc consts  --      0.6813                 0.6755                 1.3431
 IR Inten    --      7.7383                 8.5646                20.8221

                     16                     17                     18
                      A                      A                      A
 Frequencies --    775.6591               834.9404               865.7181
 Red. masses --      3.2700                 1.6605                 2.9365
 Frc consts  --      1.1591                 0.6820                 1.2967
 IR Inten    --      3.9319                11.8852                 7.7784

                     19                     20                     21
                      A                      A                      A
 Frequencies --    906.3998               922.9874               947.1803
 Red. masses --      3.7486                 1.5048                 1.4997
 Frc consts  --      1.8145                 0.7553                 0.7927
 IR Inten    --     19.0454                 9.4292                 0.2123

                     22                     23                     24
                      A                      A                      A
 Frequencies --    968.3502              1016.9869              1037.1334
 Red. masses --      1.6425                 1.5277                 1.3013
 Frc consts  --      0.9074                 0.9309                 0.8247
 IR Inten    --      6.5337                 1.5965                 4.5534

                     25                     26                     27
                      A                      A                      A
 Frequencies --   1066.7510              1131.3240              1154.1373
 Red. masses --      1.6311                 3.7246                 1.7274
 Frc consts  --      1.0936                 2.8087                 1.3557
 IR Inten    --      4.2441                18.6781                25.2874

                     28                     29                     30
                      A                      A                      A
 Frequencies --   1181.4673              1217.4250              1220.3453
 Red. masses --      1.4109                 1.6698                 2.5970
 Frc consts  --      1.1604                 1.4581                 2.2787
 IR Inten    --      1.9997                41.1205               147.1177

                     31                     32                     33
                      A                      A                      A
 Frequencies --   1273.5045              1324.1656              1356.8035
 Red. masses --      1.5425                 2.9613                 2.2675
 Frc consts  --      1.4740                 3.0593                 2.4594
 IR Inten    --     54.8328                 5.3775                64.9394

                     34                     35                     36
                      A                      A                      A
 Frequencies --   1386.2284              1401.9608              1412.8123
 Red. masses --      1.8983                 1.7591                 1.2879
 Frc consts  --      2.1492                 2.0370                 1.5146
 IR Inten    --     14.0905                16.2629                 0.9605

                     37                     38                     39
                      A                      A                      A
 Frequencies --   1459.8920              1476.7870              1478.8221
 Red. masses --      1.3530                 1.1220                 1.1084
 Frc consts  --      1.6990                 1.4418                 1.4282
 IR Inten    --     12.6866                 2.3267                14.2247

                     40                     41                     42
                      A                      A                      A
 Frequencies --   1489.3604              1699.7719              3015.8952
 Red. masses --      1.0958                 6.9208                 1.0398
 Frc consts  --      1.4322                11.7812                 5.5723
 IR Inten    --      9.5127                 9.7438                22.1551

                     43                     44                     45
                      A                      A                      A
 Frequencies --   3024.3128              3055.8295              3062.2455
 Red. masses --      1.0572                 1.1024                 1.0985
 Frc consts  --      5.6972                 6.0652                 6.0692
 IR Inten    --     42.8281                 9.4564                25.1476

                     46                     47                     48
                      A                      A                      A
 Frequencies --   3110.4153              3114.4394              3186.1461
 Red. masses --      1.0990                 1.0530                 1.0938
 Frc consts  --      6.2646                 6.0180                 6.5424
 IR Inten    --     18.9441                11.3481                16.5317

                     49                     50                     51
                      A                      A                      A
 Frequencies --   3211.3523              3741.6865              3817.4318
 Red. masses --      1.1181                 1.0657                 1.0666
 Frc consts  --      6.7937                 8.7904                 9.1583
 IR Inten    --      8.4149                39.5376                35.3024

 - Thermochemistry -
 -------------------
 Temperature   298.150 Kelvin.  Pressure   1.00000 Atm.
 Atom     1 has atomic number  6 and mass  12.00000

 Molecular mass:   126.06808 amu.
 Principal axes and moments of inertia in atomic units:
                           1         2         3
     Eigenvalues --   632.535771317.915221613.85809
           X            0.99982  -0.01529  -0.01165
           Y            0.01542   0.99982   0.01118
           Z            0.01148  -0.01136   0.99987
 This molecule is an asymmetric top.
 Rotational symmetry number  1.
 Warning -- assumption of classical behavior for rotation
           may cause significant error
 Rotational temperatures (Kelvin)      0.13693     0.06572     0.05367
 Rotational constants (GHZ):           2.85318     1.36939     1.11828
 Zero-point vibrational energy     413596.2 (Joules/Mol)
                                   98.85186 (Kcal/Mol)
 Warning -- explicit consideration of  14 degrees of freedom as
           vibrations may cause significant error
 Vibrational temperatures:    200.19   246.58   305.48   314.44   365.24
          (Kelvin)            399.00   506.62   551.02   598.53   617.94
                              685.36   776.63   829.21   849.00  1101.42
                             1116.00  1201.29  1245.57  1304.11  1327.97
                             1362.78  1393.24  1463.22  1492.20  1534.81
                             1627.72  1660.54  1699.87  1751.60  1755.80
                             1832.29  1905.18  1952.14  1994.47  2017.11
                             2032.72  2100.46  2124.76  2127.69  2142.85
                             2445.59  4339.20  4351.31  4396.65  4405.88
                             4475.19  4480.98  4584.15  4620.41  5383.45
                             5492.43

 Zero-point correction=                           0.157530 (Hartree/Particle)
 Thermal correction to Energy=                    0.166433
 Thermal correction to Enthalpy=                  0.167377
 Thermal correction to Gibbs Free Energy=         0.124748
 Sum of electronic and zero-point Energies=           -423.021595
 Sum of electronic and thermal Energies=              -423.012692
 Sum of electronic and thermal Enthalpies=            -423.011748
 Sum of electronic and thermal Free Energies=         -423.054378

                     E (Thermal)             CV                S
                      KCal/Mol        Cal/Mol-Kelvin    Cal/Mol-Kelvin
 Total                  104.438             34.939             89.721
 Electronic               0.000              0.000              0.000
 Translational            0.889              2.981             40.409
 Rotational               0.889              2.981             28.688
 Vibrational            102.661             28.977             20.624
 Vibration     1          0.615              1.914              2.816
 Vibration     2          0.626              1.878              2.420
 Vibration     3          0.643              1.822              2.024
 Vibration     4          0.646              1.813              1.971
 Vibration     5          0.665              1.756              1.704
 Vibration     6          0.678              1.715              1.550
 Vibration     7          0.729              1.571              1.157
 Vibration     8          0.752              1.506              1.027
 Vibration     9          0.779              1.435              0.906
 Vibration    10          0.791              1.406              0.860
 Vibration    11          0.833              1.303              0.720
 Vibration    12          0.895              1.162              0.566
 Vibration    13          0.933              1.082              0.492
 Vibration    14          0.947              1.053              0.467

 Optimization completed.
    -- Stationary point found.
 Normal termination of Gaussian 09 at Mon Jan 27 22:44:04 2020.
