 Gaussian 09, Revision D.01,
 Gaussian 09:  ES64L-G09RevD.01 24-Apr-2013

 -----------------------------
 # b3lyp 6-31G(2df,p) opt Freq
 -----------------------------

 -----
 titel
 -----
 Symbolic Z-matrix:
 Charge =  0 Multiplicity = 1

 SCF Done:  E(RB3LYP) =  -423.182014337     A.U. after   13 cycles
 Optimization completed.
    -- Stationary point found.
 Normal termination of Gaussian 09 at Mon Jan 27 23:46:01 2020.

 ----------------------------------------------------------------------
 #N Geom=AllCheck Guess=TCheck SCRF=Check GenChk RB3LYP/6-31G(2df,p) Fr
 eq
 ----------------------------------------------------------------------

 Structure from the checkpoint file:  "/scratch/puck/g09_b04075fe-1373-44ab-ab35-508f7206b03d/Gau-68004.chk"
 -----
 titel
 -----
 Charge =  0 Multiplicity = 1

                         Standard orientation:
 ---------------------------------------------------------------------
 Center     Atomic      Atomic             Coordinates (Angstroms)
 Number     Number       Type             X           Y           Z
 ---------------------------------------------------------------------
      1          6           0       -1.820204   -1.391767   -0.001551
      2          6           0       -0.649312   -0.645895   -0.633267
      3          6           0        0.760927   -1.137289   -0.214906
      4          6           0        1.700236   -0.103052   -0.880296
      5          6           0        1.038861    1.114531   -0.247233
      6          6           0        0.499022    0.587779    1.074411
      7          8           0        0.831787   -0.782904    1.180196
      8          6           0       -0.447041    0.768573   -0.079116
      9          8           0       -1.460637    1.711471   -0.020778
     10          1           0       -2.750610   -0.833013   -0.140681
     11          1           0       -1.948119   -2.383280   -0.447928
     12          1           0       -1.657154   -1.515553    1.072391
     13          1           0       -0.736608   -0.640671   -1.726979
     14          1           0        0.988510   -2.194668   -0.336898
     15          1           0        2.741150   -0.235469   -0.572108
     16          1           0        1.639484   -0.124274   -1.972179
     17          1           0        1.386137    2.133039   -0.357021
     18          1           0        0.463087    1.137627    2.003594
     19          1           0       -1.590009    2.070446   -0.905781
 ---------------------------------------------------------------------

 SCF Done:  E(RB3LYP) =  -423.182014337     A.U. after    1 cycles

 The electronic state is 1-A.
 Alpha  occ. eigenvalues --  -19.15152 -19.13988 -10.23278 -10.23180 -10.22566
 Alpha  occ. eigenvalues --  -10.18664 -10.18582 -10.18541 -10.16768  -1.05675
 Alpha  occ. eigenvalues --   -1.03043  -0.84893  -0.77229  -0.73785  -0.65371
 Alpha  occ. eigenvalues --   -0.58864  -0.57169  -0.56459  -0.53273  -0.46651
 Alpha  occ. eigenvalues --   -0.45948  -0.44899  -0.43266  -0.40447  -0.39711
 Alpha  occ. eigenvalues --   -0.37870  -0.36833  -0.36011  -0.34578  -0.33441
 Alpha  occ. eigenvalues --   -0.30988  -0.29803  -0.25058  -0.22619
 Alpha virt. eigenvalues --    0.07260   0.09450   0.12627   0.13045   0.13488
 Alpha virt. eigenvalues --    0.14311   0.15361   0.15680   0.16575   0.17276
 Alpha virt. eigenvalues --    0.18831   0.19378   0.19961   0.21120   0.23094

 Mulliken charges:
               1
     1  C   -0.415325
     2  C   -0.054987
     3  C    0.042751
     4  C   -0.233768
     5  C   -0.199545
     6  C    0.044280
     7  O   -0.258182
     8  C    0.358956
     9  O   -0.478140
    10  H    0.119264
    11  H    0.105664
    12  H    0.135558
    13  H    0.063764
    14  H    0.079995
    15  H    0.106524
    16  H    0.097629
    17  H    0.090987
    18  H    0.110201
    19  H    0.284376
 Sum of Mulliken charges =   0.00000

 Dipole moment (field-independent basis, Debye):
    X=              0.1873    Y=              0.5941    Z=             -2.3630  Tot=              2.4437
 Quadrupole moment (field-independent basis, Debye-Ang):
   XX=            -54.2467   YY=            -51.1334   ZZ=            -52.1173
   XY=              0.8091   XZ=              0.9832   YZ=             -0.1485

  Exact polarizability:  77.402   1.557  74.122  -1.038   1.299  67.250
 Approx polarizability: 107.670  -1.742 106.737   0.360  -0.612 108.243

                      1                      2                      3
                      A                      A                      A
 Frequencies --    193.0619               203.7698               225.4749
 Red. masses --      1.4363                 1.8194                 2.6244
 Frc consts  --      0.0315                 0.0445                 0.0786
 IR Inten    --      1.8368                 1.7628                 0.5411

                      4                      5                      6
                      A                      A                      A
 Frequencies --    286.6439               328.7165               386.0735
 Red. masses --      2.2334                 1.4100                 3.3107
 Frc consts  --      0.1081                 0.0898                 0.2907
 IR Inten    --     17.9441                49.2821                35.1920

                      7                      8                      9
                      A                      A                      A
 Frequencies --    427.1094               529.8207               570.9633
 Red. masses --      2.0672                 4.2709                 4.4703
 Frc consts  --      0.2222                 0.7064                 0.8586
 IR Inten    --      0.7176                 1.8816                 9.1770

                     10                     11                     12
                      A                      A                      A
 Frequencies --    610.0353               696.6170               728.5278
 Red. masses --      3.8983                 5.1009                 3.1114
 Frc consts  --      0.8547                 1.4584                 0.9730
 IR Inten    --      6.4584                 3.9988                 7.2902

                     13                     14                     15
                      A                      A                      A
 Frequencies --    763.6847               861.1255               883.7822
 Red. masses --      2.9597                 1.6687                 1.9985
 Frc consts  --      1.0170                 0.7291                 0.9197
 IR Inten    --      2.1476                 0.2217                28.2304

                     16                     17                     18
                      A                      A                      A
 Frequencies --    892.8245               914.8016               940.1781
 Red. masses --      2.6864                 2.2578                 3.2937
 Frc consts  --      1.2617                 1.1132                 1.7154
 IR Inten    --      6.0316                16.6093                 6.2794

                     19                     20                     21
                      A                      A                      A
 Frequencies --    946.8911               992.6450              1010.1033
 Red. masses --      2.1304                 1.9115                 1.6985
 Frc consts  --      1.1254                 1.1097                 1.0210
 IR Inten    --      2.9551                 4.5118                18.2662

                     22                     23                     24
                      A                      A                      A
 Frequencies --   1027.5046              1042.1621              1075.3617
 Red. masses --      1.5012                 2.0268                 3.1620
 Frc consts  --      0.9338                 1.2969                 2.1544
 IR Inten    --      1.7676                20.7466                22.4838

                     25                     26                     27
                      A                      A                      A
 Frequencies --   1092.0569              1118.7630              1153.6753
 Red. masses --      1.5543                 2.0492                 2.0295
 Frc consts  --      1.0922                 1.5112                 1.5915
 IR Inten    --     16.0033                 1.1939                 8.7141

                     28                     29                     30
                      A                      A                      A
 Frequencies --   1166.6783              1206.6025              1231.6396
 Red. masses --      1.2388                 1.6898                 1.5254
 Frc consts  --      0.9935                 1.4495                 1.3633
 IR Inten    --      2.9424                17.6352                 3.3866

                     31                     32                     33
                      A                      A                      A
 Frequencies --   1267.8360              1275.2573              1299.2917
 Red. masses --      1.7659                 2.2816                 1.7870
 Frc consts  --      1.6724                 2.1861                 1.7774
 IR Inten    --     42.6206                20.0928                79.1896

                     34                     35                     36
                      A                      A                      A
 Frequencies --   1309.2111              1349.3296              1373.7668
 Red. masses --      1.5577                 1.5162                 1.6563
 Frc consts  --      1.5731                 1.6264                 1.8417
 IR Inten    --      7.5882                 9.0411                 0.8403

                     37                     38                     39
                      A                      A                      A
 Frequencies --   1404.3164              1454.2988              1488.4788
 Red. masses --      1.2617                 2.8928                 1.1057
 Frc consts  --      1.4660                 3.6048                 1.4434
 IR Inten    --      3.2527                 5.3539                 1.5629

                     40                     41                     42
                      A                      A                      A
 Frequencies --   1493.5456              1504.4087              3028.5358
 Red. masses --      1.0627                 1.0566                 1.0819
 Frc consts  --      1.3967                 1.4089                 5.8464
 IR Inten    --      5.1190                 5.7593                22.2533

                     43                     44                     45
                      A                      A                      A
 Frequencies --   3039.6472              3056.4621              3104.6803
 Red. masses --      1.0371                 1.0581                 1.1011
 Frc consts  --      5.6457                 5.8236                 6.2535
 IR Inten    --     30.7067                36.0576                20.7246

                     46                     47                     48
                      A                      A                      A
 Frequencies --   3105.4521              3123.3860              3142.7204
 Red. masses --      1.1074                 1.1008                 1.0910
 Frc consts  --      6.2923                 6.3269                 6.3486
 IR Inten    --     20.6408                17.6486                30.0585

                     49                     50                     51
                      A                      A                      A
 Frequencies --   3209.3451              3231.8108              3788.0117
 Red. masses --      1.0921                 1.0957                 1.0661
 Frc consts  --      6.6272                 6.7426                 9.0130
 IR Inten    --      5.8454                 6.5917                18.0049

 - Thermochemistry -
 -------------------
 Temperature   298.150 Kelvin.  Pressure   1.00000 Atm.
 Atom     1 has atomic number  6 and mass  12.00000

 Molecular mass:   126.06808 amu.
 Principal axes and moments of inertia in atomic units:
                           1         2         3
     Eigenvalues --   766.20266 884.008561184.52367
           X            0.97525   0.22020  -0.02020
           Y           -0.21991   0.97540   0.01559
           Z            0.02313  -0.01076   0.99967
 This molecule is an asymmetric top.
 Rotational symmetry number  1.
 Warning -- assumption of classical behavior for rotation
           may cause significant error
 Rotational temperatures (Kelvin)      0.11304     0.09798     0.07312
 Rotational constants (GHZ):           2.35544     2.04154     1.52360
 Zero-point vibrational energy     422025.1 (Joules/Mol)
                                  100.86642 (Kcal/Mol)
 Warning -- explicit consideration of  10 degrees of freedom as
           vibrations may cause significant error
 Vibrational temperatures:    277.77   293.18   324.41   412.42   472.95
          (Kelvin)            555.47   614.51   762.29   821.49   877.70
                             1002.28  1048.19  1098.77  1238.97  1271.56
                             1284.57  1316.19  1352.70  1362.36  1428.19
                             1453.31  1478.35  1499.44  1547.20  1571.22
                             1609.65  1659.88  1678.59  1736.03  1772.05
                             1824.13  1834.81  1869.39  1883.66  1941.38
                             1976.54  2020.50  2092.41  2141.59  2148.88
                             2164.51  4357.38  4373.37  4397.56  4466.94
                             4468.05  4493.85  4521.67  4617.53  4649.85
                             5450.10

 Zero-point correction=                           0.160741 (Hartree/Particle)
 Thermal correction to Energy=                    0.168186
 Thermal correction to Enthalpy=                  0.169130
 Thermal correction to Gibbs Free Energy=         0.129435
 Sum of electronic and zero-point Energies=           -423.021273
 Sum of electronic and thermal Energies=              -423.013828
 Sum of electronic and thermal Enthalpies=            -423.012884
 Sum of electronic and thermal Free Energies=         -423.052579

                     E (Thermal)             CV                S
                      KCal/Mol        Cal/Mol-Kelvin    Cal/Mol-Kelvin
 Total                  105.538             30.659             83.546
 Electronic               0.000              0.000              0.000
 Translational            0.889              2.981             40.409
 Rotational               0.889              2.981             28.175
 Vibrational            103.761             24.697             14.962
 Vibration     1          0.635              1.849              2.198
 Vibration     2          0.639              1.835              2.099
 Vibration     3          0.650              1.802              1.915
 Vibration     4          0.684              1.699              1.494
 Vibration     5          0.712              1.618              1.266
 Vibration     6          0.755              1.500              1.015
 Vibration     7          0.789              1.411              0.868
 Vibration     8          0.885              1.184              0.588
 Vibration     9          0.927              1.094              0.502
 Vibration    10          0.969              1.011              0.433

 Optimization completed.
    -- Stationary point found.
 Normal termination of Gaussian 09 at Tue Jan 28 00:32:30 2020.
