 Gaussian 09, Revision D.01,
 Gaussian 09:  ES64L-G09RevD.01 24-Apr-2013

 -----------------------------
 # b3lyp 6-31G(2df,p) opt Freq
 -----------------------------

 -----
 titel
 -----
 Symbolic Z-matrix:
 Charge =  0 Multiplicity = 1

 SCF Done:  E(RB3LYP) =  -423.132345857     A.U. after   14 cycles
 Optimization completed.
    -- Stationary point found.
 Normal termination of Gaussian 09 at Tue Jan 28 13:26:40 2020.

 ----------------------------------------------------------------------
 #N Geom=AllCheck Guess=TCheck SCRF=Check GenChk RB3LYP/6-31G(2df,p) Fr
 eq
 ----------------------------------------------------------------------

 Structure from the checkpoint file:  "/scratch/puck/g09_225ec290-3df3-4fab-bd07-d2206d0ce856/Gau-118442.chk"
 -----
 titel
 -----
 Charge =  0 Multiplicity = 1

                         Standard orientation:
 ---------------------------------------------------------------------
 Center     Atomic      Atomic             Coordinates (Angstroms)
 Number     Number       Type             X           Y           Z
 ---------------------------------------------------------------------
      1          6           0        0.767566    2.447052    0.419185
      2          6           0        0.658645    1.160879   -0.367898
      3          8           0       -0.701227    0.844551   -0.755418
      4          6           0       -0.573912   -0.517245   -0.280924
      5          6           0       -1.752629   -0.881154    0.601568
      6          8           0       -2.964735   -0.747533   -0.112434
      7          6           0        0.789600   -0.195493    0.390745
      8          6           0        1.926950   -1.042757    0.111970
      9          6           0        2.871262   -1.743410   -0.139447
     10          1           0        1.806189    2.619147    0.721046
     11          1           0        0.445059    3.294885   -0.193340
     12          1           0        0.140746    2.412213    1.315456
     13          1           0        1.307487    1.188888   -1.252955
     14          1           0       -0.490498   -1.216774   -1.121747
     15          1           0       -1.677559   -1.926079    0.922869
     16          1           0       -1.741356   -0.245801    1.502731
     17          1           0       -2.963550    0.145741   -0.477635
     18          1           0        0.671068   -0.051295    1.470583
     19          1           0        3.705218   -2.364314   -0.355378
 ---------------------------------------------------------------------

 SCF Done:  E(RB3LYP) =  -423.132345857     A.U. after    1 cycles

 The electronic state is 1-A.
 Alpha  occ. eigenvalues --  -19.14285 -19.13486 -10.24881 -10.24153 -10.22989
 Alpha  occ. eigenvalues --  -10.22102 -10.18821 -10.18692 -10.17968  -1.05209
 Alpha  occ. eigenvalues --   -1.01479  -0.80047  -0.76517  -0.73388  -0.69460
 Alpha  occ. eigenvalues --   -0.61812  -0.57862  -0.55016  -0.51096  -0.49982
 Alpha  occ. eigenvalues --   -0.48098  -0.46996  -0.42931  -0.42491  -0.40237
 Alpha  occ. eigenvalues --   -0.38918  -0.38765  -0.36045  -0.33664  -0.32720
 Alpha  occ. eigenvalues --   -0.28244  -0.26855  -0.26514  -0.25283
 Alpha virt. eigenvalues --    0.03560   0.04355   0.07157   0.09754   0.10954
 Alpha virt. eigenvalues --    0.12260   0.12869   0.13192   0.14479   0.15414
 Alpha virt. eigenvalues --    0.16128   0.16289   0.18386   0.20681   0.21036

 Mulliken charges:
               1
     1  C   -0.411433
     2  C    0.169619
     3  O   -0.330687
     4  C    0.129532
     5  C   -0.076026
     6  O   -0.419022
     7  C   -0.295109
     8  C    0.319641
     9  C   -0.447373
    10  H    0.127687
    11  H    0.132922
    12  H    0.121039
    13  H    0.088343
    14  H    0.092148
    15  H    0.114806
    16  H    0.082257
    17  H    0.295725
    18  H    0.105503
    19  H    0.200427
 Sum of Mulliken charges =   0.00000

 Dipole moment (field-independent basis, Debye):
    X=              1.8640    Y=              0.8671    Z=              0.7744  Tot=              2.1968
 Quadrupole moment (field-independent basis, Debye-Ang):
   XX=            -56.6312   YY=            -50.8922   ZZ=            -53.3083
   XY=             -3.7695   XZ=             -1.6504   YZ=              0.6204

  Exact polarizability:  92.327  -9.844  83.145  -3.028   1.943  60.460
 Approx polarizability: 130.996 -21.190 116.101  -4.646   3.401  92.600

                      1                      2                      3
                      A                      A                      A
 Frequencies --     54.1810                93.8717               130.0963
 Red. masses --      4.3339                 3.3862                 3.2286
 Frc consts  --      0.0075                 0.0176                 0.0322
 IR Inten    --      0.4192                 2.9987                 0.3755

                      4                      5                      6
                      A                      A                      A
 Frequencies --    138.9837               211.1932               242.3822
 Red. masses --      3.7182                 1.3016                 2.2589
 Frc consts  --      0.0423                 0.0342                 0.0782
 IR Inten    --      0.8199                 0.0351                 1.5858

                      7                      8                      9
                      A                      A                      A
 Frequencies --    299.0039               374.0353               408.5063
 Red. masses --      2.8096                 3.6716                 2.6592
 Frc consts  --      0.1480                 0.3026                 0.2615
 IR Inten    --      1.3053                 7.4566                 6.7081

                     10                     11                     12
                      A                      A                      A
 Frequencies --    422.3389               450.1061               517.1894
 Red. masses --      4.1420                 1.2590                 4.5001
 Frc consts  --      0.4353                 0.1503                 0.7092
 IR Inten    --     12.3617               103.7525                 6.4230

                     13                     14                     15
                      A                      A                      A
 Frequencies --    584.5090               623.0573               637.8010
 Red. masses --      3.7381                 1.3224                 1.2253
 Frc consts  --      0.7525                 0.3025                 0.2937
 IR Inten    --      6.7643                37.5356                41.8944

                     16                     17                     18
                      A                      A                      A
 Frequencies --    654.3134               860.1348               865.1330
 Red. masses --      3.0463                 2.0458                 2.3236
 Frc consts  --      0.7684                 0.8918                 1.0247
 IR Inten    --      6.6346                 8.6615                18.5285

                     19                     20                     21
                      A                      A                      A
 Frequencies --    904.1703              1007.7991              1044.4660
 Red. masses --      2.3745                 4.6023                 3.1720
 Frc consts  --      1.1437                 2.7541                 2.0388
 IR Inten    --     37.0005                15.3823                84.4568

                     22                     23                     24
                      A                      A                      A
 Frequencies --   1051.9552              1071.3895              1090.8142
 Red. masses --      2.0175                 2.7394                 3.6497
 Frc consts  --      1.3154                 1.8527                 2.5587
 IR Inten    --     56.3654                28.2403                33.1314

                     25                     26                     27
                      A                      A                      A
 Frequencies --   1108.2820              1125.1580              1140.5819
 Red. masses --      1.9084                 2.5950                 2.2190
 Frc consts  --      1.3811                 1.9356                 1.7008
 IR Inten    --     27.7178                 5.0342                 6.5148

                     28                     29                     30
                      A                      A                      A
 Frequencies --   1203.7183              1223.5498              1269.0858
 Red. masses --      1.4053                 1.2475                 1.3239
 Frc consts  --      1.1997                 1.1003                 1.2563
 IR Inten    --      4.2100                13.7947                14.4014

                     31                     32                     33
                      A                      A                      A
 Frequencies --   1284.3207              1346.2551              1356.8094
 Red. masses --      1.2884                 1.2662                 1.4281
 Frc consts  --      1.2522                 1.3521                 1.5490
 IR Inten    --      5.2169                14.9520                13.4708

                     34                     35                     36
                      A                      A                      A
 Frequencies --   1384.8512              1401.6504              1419.0186
 Red. masses --      1.2515                 1.2486                 1.3950
 Frc consts  --      1.4141                 1.4453                 1.6550
 IR Inten    --     13.6561                12.2736                19.1880

                     37                     38                     39
                      A                      A                      A
 Frequencies --   1438.9442              1480.9769              1492.0834
 Red. masses --      1.4844                 1.0564                 1.0493
 Frc consts  --      1.8109                 1.3651                 1.3764
 IR Inten    --     52.0576                 4.3491                 3.1227

                     40                     41                     42
                      A                      A                      A
 Frequencies --   1496.5688              2237.8529              2967.9788
 Red. masses --      1.0930                 5.9730                 1.0695
 Frc consts  --      1.4423                17.6240                 5.5510
 IR Inten    --      0.8902                 3.9264                44.8564

                     43                     44                     45
                      A                      A                      A
 Frequencies --   3019.4745              3033.9675              3035.7795
 Red. masses --      1.0844                 1.0666                 1.0519
 Frc consts  --      5.8250                 5.7845                 5.7118
 IR Inten    --     25.1256                24.7618                 1.1944

                     46                     47                     48
                      A                      A                      A
 Frequencies --   3046.9235              3072.6963              3110.0772
 Red. masses --      1.0834                 1.0936                 1.1010
 Frc consts  --      5.9262                 6.0833                 6.2744
 IR Inten    --     37.8850                35.0145                14.3752

                     49                     50                     51
                      A                      A                      A
 Frequencies --   3113.7963              3502.9531              3789.0229
 Red. masses --      1.1025                 1.1615                 1.0656
 Frc consts  --      6.2980                 8.3976                 9.0137
 IR Inten    --     25.0996                76.5775                27.5528

 - Thermochemistry -
 -------------------
 Temperature   298.150 Kelvin.  Pressure   1.00000 Atm.
 Atom     1 has atomic number  6 and mass  12.00000

 Molecular mass:   126.06808 amu.
 Principal axes and moments of inertia in atomic units:
                           1         2         3
     Eigenvalues --   850.375411493.995702120.98390
           X            0.99982   0.01767  -0.00749
           Y           -0.01754   0.99971   0.01638
           Z            0.00778  -0.01624   0.99984
 This molecule is an asymmetric top.
 Rotational symmetry number  1.
 Warning -- assumption of classical behavior for rotation
           may cause significant error
 Rotational temperatures (Kelvin)      0.10185     0.05797     0.04084
 Rotational constants (GHZ):           2.12229     1.20800     0.85090
 Zero-point vibrational energy     411753.5 (Joules/Mol)
                                   98.41144 (Kcal/Mol)
 Warning -- explicit consideration of  13 degrees of freedom as
           vibrations may cause significant error
 Vibrational temperatures:     77.95   135.06   187.18   199.97   303.86
          (Kelvin)            348.73   430.20   538.15   587.75   607.65
                              647.60   744.12   840.98   896.44   917.65
                              941.41  1237.54  1244.73  1300.90  1450.00
                             1502.75  1513.53  1541.49  1569.44  1594.57
                             1618.85  1641.04  1731.88  1760.41  1825.93
                             1847.85  1936.96  1952.14  1992.49  2016.66
                             2041.65  2070.32  2130.79  2146.77  2153.23
                             3219.77  4270.25  4344.34  4365.20  4367.80
                             4383.84  4420.92  4474.70  4480.05  5039.96
                             5451.55

 Zero-point correction=                           0.156829 (Hartree/Particle)
 Thermal correction to Energy=                    0.166541
 Thermal correction to Enthalpy=                  0.167485
 Thermal correction to Gibbs Free Energy=         0.121749
 Sum of electronic and zero-point Energies=           -422.975517
 Sum of electronic and thermal Energies=              -422.965805
 Sum of electronic and thermal Enthalpies=            -422.964860
 Sum of electronic and thermal Free Energies=         -423.010597

                     E (Thermal)             CV                S
                      KCal/Mol        Cal/Mol-Kelvin    Cal/Mol-Kelvin
 Total                  104.506             35.500             96.260
 Electronic               0.000              0.000              0.000
 Translational            0.889              2.981             40.409
 Rotational               0.889              2.981             29.379
 Vibrational            102.729             29.539             26.473
 Vibration     1          0.596              1.976              4.659
 Vibration     2          0.603              1.954              3.578
 Vibration     3          0.612              1.923              2.945
 Vibration     4          0.615              1.914              2.818
 Vibration     5          0.643              1.824              2.033
 Vibration     6          0.659              1.775              1.785
 Vibration     7          0.692              1.676              1.422
 Vibration     8          0.745              1.525              1.063
 Vibration     9          0.773              1.452              0.932
 Vibration    10          0.785              1.422              0.884
 Vibration    11          0.809              1.361              0.795
 Vibration    12          0.872              1.212              0.617
 Vibration    13          0.941              1.065              0.477

 Optimization completed.
    -- Stationary point found.
 Normal termination of Gaussian 09 at Tue Jan 28 14:05:07 2020.
