 Gaussian 09, Revision D.01,
 Gaussian 09:  ES64L-G09RevD.01 24-Apr-2013

 -----------------------------
 # b3lyp 6-31G(2df,p) opt Freq
 -----------------------------

 -----
 titel
 -----
 Symbolic Z-matrix:
 Charge =  0 Multiplicity = 1

 SCF Done:  E(RB3LYP) =  -423.149185181     A.U. after   14 cycles
 Optimization completed.
    -- Stationary point found.
 Normal termination of Gaussian 09 at Mon Jan 27 13:45:00 2020.

 ----------------------------------------------------------------------
 #N Geom=AllCheck Guess=TCheck SCRF=Check GenChk RB3LYP/6-31G(2df,p) Fr
 eq
 ----------------------------------------------------------------------

 Structure from the checkpoint file:  "/scratch/puck/g09_9c5cad68-b51b-4c1a-8779-538341d9abed/Gau-170613.chk"
 -----
 titel
 -----
 Charge =  0 Multiplicity = 1

                         Standard orientation:
 ---------------------------------------------------------------------
 Center     Atomic      Atomic             Coordinates (Angstroms)
 Number     Number       Type             X           Y           Z
 ---------------------------------------------------------------------
      1          8           0        3.639393   -0.305326    0.399212
      2          6           0        2.800532    0.011351   -0.403067
      3          6           0        1.396075   -0.554876   -0.457191
      4          6           0        0.351069    0.547054   -0.416111
      5          6           0       -0.083756    1.135036    0.911356
      6          6           0       -1.022932    0.278058    0.120790
      7          6           0       -2.371229    0.640471   -0.494490
      8          8           0       -2.906322   -0.650853   -0.131725
      9          6           0       -1.668535   -1.053937    0.493902
     10          1           0        3.014760    0.779006   -1.183793
     11          1           0        1.299051   -1.122535   -1.394588
     12          1           0        1.277810   -1.255944    0.374419
     13          1           0        0.398849    1.243709   -1.251135
     14          1           0        0.348588    0.714321    1.814876
     15          1           0       -0.280939    2.201079    0.965612
     16          1           0       -2.913110    1.461591   -0.006194
     17          1           0       -2.380324    0.799868   -1.581126
     18          1           0       -1.792925   -1.240446    1.568697
     19          1           0       -1.243677   -1.950157    0.022210
 ---------------------------------------------------------------------

 SCF Done:  E(RB3LYP) =  -423.149185181     A.U. after    1 cycles

 The electronic state is 1-A.
 Alpha  occ. eigenvalues --  -19.14370 -19.13643 -10.27617 -10.23635 -10.23604
 Alpha  occ. eigenvalues --  -10.21271 -10.21078 -10.20525 -10.19863  -1.05065
 Alpha  occ. eigenvalues --   -1.04155  -0.87871  -0.76312  -0.69883  -0.68495
 Alpha  occ. eigenvalues --   -0.61029  -0.58018  -0.54526  -0.51034  -0.49285
 Alpha  occ. eigenvalues --   -0.48484  -0.47349  -0.43685  -0.43408  -0.41642
 Alpha  occ. eigenvalues --   -0.40497  -0.38482  -0.36829  -0.35742  -0.33088
 Alpha  occ. eigenvalues --   -0.30799  -0.28666  -0.25375  -0.24736
 Alpha virt. eigenvalues --   -0.02469   0.06252   0.08619   0.09649   0.09883
 Alpha virt. eigenvalues --    0.11878   0.12456   0.13958   0.14253   0.15127
 Alpha virt. eigenvalues --    0.15833   0.17699   0.19592   0.19941   0.22189

 Mulliken charges:
               1
     1  O   -0.235613
     2  C    0.171848
     3  C   -0.306440
     4  C   -0.083035
     5  C   -0.349990
     6  C    0.279409
     7  C   -0.135850
     8  O   -0.274250
     9  C   -0.135514
    10  H    0.072201
    11  H    0.123371
    12  H    0.122600
    13  H    0.093298
    14  H    0.125551
    15  H    0.118933
    16  H    0.103887
    17  H    0.101492
    18  H    0.105206
    19  H    0.102895
 Sum of Mulliken charges =   0.00000

 Dipole moment (field-independent basis, Debye):
    X=             -0.6236    Y=              1.2081    Z=             -1.1417  Tot=              1.7753
 Quadrupole moment (field-independent basis, Debye-Ang):
   XX=            -72.4985   YY=            -51.0637   ZZ=            -51.0656
   XY=             -1.9775   XZ=             -5.0266   YZ=             -0.6849

  Exact polarizability:  90.201  -1.498  71.365   1.931  -3.434  69.435
 Approx polarizability: 116.760  -2.134 104.491   7.711  -5.833 108.611

                      1                      2                      3
                      A                      A                      A
 Frequencies --     43.9505                63.0166                88.1085
 Red. masses --      5.2801                 3.9219                 4.3993
 Frc consts  --      0.0060                 0.0092                 0.0201
 IR Inten    --      5.2543                 5.7416                 2.2377

                      4                      5                      6
                      A                      A                      A
 Frequencies --    141.2885               192.7205               267.0997
 Red. masses --      2.5584                 2.3339                 2.9257
 Frc consts  --      0.0301                 0.0511                 0.1230
 IR Inten    --      2.5132                 0.8097                 1.0619

                      7                      8                      9
                      A                      A                      A
 Frequencies --    325.2885               400.6123               436.4907
 Red. masses --      2.5936                 1.9988                 2.4935
 Frc consts  --      0.1617                 0.1890                 0.2799
 IR Inten    --      1.4251                 0.8018                 0.7337

                     10                     11                     12
                      A                      A                      A
 Frequencies --    519.7619               587.6912               758.7729
 Red. masses --      2.8941                 4.0944                 1.8084
 Frc consts  --      0.4606                 0.8332                 0.6134
 IR Inten    --     18.2490                 0.0627                 1.1942

                     13                     14                     15
                      A                      A                      A
 Frequencies --    848.2876               862.8666               870.9347
 Red. masses --      1.8627                 3.0039                 1.6900
 Frc consts  --      0.7897                 1.3177                 0.7553
 IR Inten    --      0.0603                13.8676                 6.8862

                     16                     17                     18
                      A                      A                      A
 Frequencies --    886.5550               929.6704               982.1077
 Red. masses --      1.4161                 2.4536                 2.1645
 Frc consts  --      0.6558                 1.2494                 1.2301
 IR Inten    --      1.3911                20.9080                11.6104

                     19                     20                     21
                      A                      A                      A
 Frequencies --    994.2520              1031.8517              1047.1759
 Red. masses --      2.3822                11.3047                 1.7795
 Frc consts  --      1.3875                 7.0916                 1.1497
 IR Inten    --      0.6130                86.7654                11.2214

                     22                     23                     24
                      A                      A                      A
 Frequencies --   1056.3294              1084.1568              1105.0425
 Red. masses --      1.3770                 1.8227                 2.4098
 Frc consts  --      0.9053                 1.2623                 1.7338
 IR Inten    --     12.2725                 1.8526                 0.1295

                     25                     26                     27
                      A                      A                      A
 Frequencies --   1132.1685              1151.9664              1156.4454
 Red. masses --      1.8231                 1.1030                 1.5074
 Frc consts  --      1.3768                 0.8624                 1.1877
 IR Inten    --      0.5233                 0.4634                 3.4983

                     28                     29                     30
                      A                      A                      A
 Frequencies --   1166.7278              1209.8886              1245.1935
 Red. masses --      1.5951                 1.6406                 1.6874
 Frc consts  --      1.2794                 1.4149                 1.5415
 IR Inten    --      6.1785                10.5918                 3.6500

                     31                     32                     33
                      A                      A                      A
 Frequencies --   1289.4882              1311.4307              1324.6170
 Red. masses --      1.4305                 1.3498                 1.5579
 Frc consts  --      1.4015                 1.3678                 1.6105
 IR Inten    --      1.2001                 0.4962                10.7391

                     34                     35                     36
                      A                      A                      A
 Frequencies --   1381.4338              1430.0207              1439.3212
 Red. masses --      1.4729                 1.1920                 1.4696
 Frc consts  --      1.6561                 1.4362                 1.7938
 IR Inten    --      2.6887                 5.5289                 4.3968

                     37                     38                     39
                      A                      A                      A
 Frequencies --   1460.7150              1501.7746              1510.3670
 Red. masses --      1.1335                 2.1079                 1.0827
 Frc consts  --      1.4250                 2.8009                 1.4552
 IR Inten    --      4.2818                 2.2940                 2.4006

                     40                     41                     42
                      A                      A                      A
 Frequencies --   1534.9236              1837.4783              2854.9890
 Red. masses --      1.1098                10.1408                 1.0820
 Frc consts  --      1.5405                20.1728                 5.1961
 IR Inten    --      0.3564               182.6833               114.1944

                     43                     44                     45
                      A                      A                      A
 Frequencies --   2994.8326              3005.7166              3007.9902
 Red. masses --      1.0521                 1.0592                 1.0634
 Frc consts  --      5.5595                 5.6379                 5.6687
 IR Inten    --    126.4946                 7.1407                13.2373

                     46                     47                     48
                      A                      A                      A
 Frequencies --   3039.8975              3041.8803              3091.4653
 Red. masses --      1.1098                 1.1117                 1.0945
 Frc consts  --      6.0422                 6.0607                 6.1630
 IR Inten    --     21.0510                68.3546                 5.7987

                     49                     50                     51
                      A                      A                      A
 Frequencies --   3120.0244              3124.0963              3205.5186
 Red. masses --      1.0544                 1.0877                 1.1162
 Frc consts  --      6.0476                 6.2548                 6.7578
 IR Inten    --     10.7179                15.8184                 7.0293

 - Thermochemistry -
 -------------------
 Temperature   298.150 Kelvin.  Pressure   1.00000 Atm.
 Atom     1 has atomic number  8 and mass  15.99491

 Molecular mass:   126.06808 amu.
 Principal axes and moments of inertia in atomic units:
                           1         2         3
     Eigenvalues --   387.308082324.854552429.09035
           X            0.99997  -0.00419  -0.00692
           Y            0.00390   0.99913  -0.04143
           Z            0.00708   0.04140   0.99912
 This molecule is an asymmetric top.
 Rotational symmetry number  1.
 Rotational temperatures (Kelvin)      0.22363     0.03726     0.03566
 Rotational constants (GHZ):           4.65970     0.77628     0.74297
 Zero-point vibrational energy     413276.3 (Joules/Mol)
                                   98.77541 (Kcal/Mol)
 Warning -- explicit consideration of  11 degrees of freedom as
           vibrations may cause significant error
 Vibrational temperatures:     63.23    90.67   126.77   203.28   277.28
          (Kelvin)            384.30   468.02   576.39   628.01   747.82
                              845.56  1091.70  1220.50  1241.47  1253.08
                             1275.55  1337.59  1413.03  1430.51  1484.60
                             1506.65  1519.82  1559.86  1589.91  1628.94
                             1657.42  1663.86  1678.66  1740.76  1791.55
                             1855.28  1886.85  1905.83  1987.57  2057.48
                             2070.86  2101.64  2160.72  2173.08  2208.41
                             2643.72  4107.69  4308.89  4324.55  4327.82
                             4373.73  4376.58  4447.92  4489.01  4494.87
                             4612.02

 Zero-point correction=                           0.157409 (Hartree/Particle)
 Thermal correction to Energy=                    0.166489
 Thermal correction to Enthalpy=                  0.167434
 Thermal correction to Gibbs Free Energy=         0.122059
 Sum of electronic and zero-point Energies=           -422.991777
 Sum of electronic and thermal Energies=              -422.982696
 Sum of electronic and thermal Enthalpies=            -422.981752
 Sum of electronic and thermal Free Energies=         -423.027126

                     E (Thermal)             CV                S
                      KCal/Mol        Cal/Mol-Kelvin    Cal/Mol-Kelvin
 Total                  104.474             32.211             95.499
 Electronic               0.000              0.000              0.000
 Translational            0.889              2.981             40.409
 Rotational               0.889              2.981             29.171
 Vibrational            102.696             26.250             25.919
 Vibration     1          0.595              1.980              5.073
 Vibration     2          0.597              1.972              4.360
 Vibration     3          0.601              1.958              3.702
 Vibration     4          0.615              1.912              2.786
 Vibration     5          0.635              1.850              2.202
 Vibration     6          0.672              1.734              1.615
 Vibration     7          0.709              1.625              1.283
 Vibration     8          0.766              1.469              0.960
 Vibration     9          0.797              1.391              0.838
 Vibration    10          0.875              1.206              0.611
 Vibration    11          0.945              1.058              0.471

 Normal termination of Gaussian 09 at Mon Jan 27 14:23:15 2020.
