 Gaussian 09, Revision D.01,
 Gaussian 09:  ES64L-G09RevD.01 24-Apr-2013

 -----------------------------
 # b3lyp 6-31G(2df,p) opt Freq
 -----------------------------

 -----
 titel
 -----
 Symbolic Z-matrix:
 Charge =  0 Multiplicity = 1

 SCF Done:  E(RB3LYP) =  -423.203259701     A.U. after   14 cycles
 Optimization completed.
    -- Stationary point found.
 Normal termination of Gaussian 09 at Tue Jan 28 00:35:46 2020.

 ----------------------------------------------------------------------
 #N Geom=AllCheck Guess=TCheck SCRF=Check GenChk RB3LYP/6-31G(2df,p) Fr
 eq
 ----------------------------------------------------------------------

 Structure from the checkpoint file:  "/scratch/puck/g09_64c23aa9-bdcb-4f30-9e71-8312657fbb37/Gau-107460.chk"
 -----
 titel
 -----
 Charge =  0 Multiplicity = 1

                         Standard orientation:
 ---------------------------------------------------------------------
 Center     Atomic      Atomic             Coordinates (Angstroms)
 Number     Number       Type             X           Y           Z
 ---------------------------------------------------------------------
      1          8           0        2.404548   -0.739941    0.275651
      2          6           0        1.230252   -0.437829   -0.469876
      3          6           0        0.043512   -1.350875   -0.065737
      4          6           0       -1.303023   -0.627009    0.068037
      5          8           0       -2.357569   -1.212760    0.015607
      6          6           0       -1.178292    0.867330    0.265984
      7          6           0       -0.392342    1.418259   -0.970539
      8          6           0        0.902890    1.033381   -0.211382
      9          6           0        0.095583    1.196964    1.104638
     10          1           0        2.627882   -1.663895    0.124041
     11          1           0        1.430497   -0.558096   -1.546399
     12          1           0       -0.082332   -2.212797   -0.725954
     13          1           0        0.267012   -1.747146    0.933482
     14          1           0       -2.141413    1.305922    0.526157
     15          1           0       -0.582004    0.962550   -1.947581
     16          1           0       -0.509722    2.501082   -1.052131
     17          1           0        1.796802    1.642244   -0.356547
     18          1           0        0.349314    0.553356    1.949891
     19          1           0        0.076647    2.237054    1.438235
 ---------------------------------------------------------------------

 SCF Done:  E(RB3LYP) =  -423.203259701     A.U. after    1 cycles

 The electronic state is 1-A.
 Alpha  occ. eigenvalues --  -19.14183 -19.12354 -10.26533 -10.24256 -10.19775
 Alpha  occ. eigenvalues --  -10.19689 -10.19605 -10.19266 -10.19037  -1.03561
 Alpha  occ. eigenvalues --   -1.02454  -0.87701  -0.75848  -0.71331  -0.67173
 Alpha  occ. eigenvalues --   -0.62390  -0.57165  -0.51945  -0.51091  -0.50136
 Alpha  occ. eigenvalues --   -0.47201  -0.43925  -0.43162  -0.41197  -0.40835
 Alpha  occ. eigenvalues --   -0.39205  -0.37325  -0.35787  -0.34120  -0.32065
 Alpha  occ. eigenvalues --   -0.31723  -0.31004  -0.27898  -0.23488
 Alpha virt. eigenvalues --   -0.00875   0.06915   0.08509   0.09907   0.11099
 Alpha virt. eigenvalues --    0.13302   0.14641   0.15493   0.16229   0.17124
 Alpha virt. eigenvalues --    0.18569   0.19104   0.20130   0.20737   0.21869

 Mulliken charges:
               1
     1  O   -0.442845
     2  C    0.120762
     3  C   -0.359398
     4  C    0.409317
     5  O   -0.329980
     6  C   -0.111170
     7  C   -0.248540
     8  C   -0.007743
     9  C   -0.241885
    10  H    0.283307
    11  H    0.072060
    12  H    0.121414
    13  H    0.139655
    14  H    0.082518
    15  H    0.103857
    16  H    0.112266
    17  H    0.077671
    18  H    0.110913
    19  H    0.107821
 Sum of Mulliken charges =   0.00000

 Dipole moment (field-independent basis, Debye):
    X=              1.9889    Y=              0.6342    Z=             -0.6029  Tot=              2.1729
 Quadrupole moment (field-independent basis, Debye-Ang):
   XX=            -63.0857   YY=            -49.0692   ZZ=            -51.8662
   XY=             -7.8276   XZ=             -1.7069   YZ=              0.3426

  Exact polarizability:  80.209  -0.025  78.764   0.091   0.710  65.079
 Approx polarizability: 118.856   5.422 111.993   1.905   0.692 100.352

                      1                      2                      3
                      A                      A                      A
 Frequencies --     80.5885               142.6735               279.1066
 Red. masses --      3.6349                 3.7709                 1.7366
 Frc consts  --      0.0139                 0.0452                 0.0797
 IR Inten    --      6.3616                 2.4875                31.0010

                      4                      5                      6
                      A                      A                      A
 Frequencies --    295.8782               331.6734               397.0679
 Red. masses --      1.4638                 3.2202                 2.2400
 Frc consts  --      0.0755                 0.2087                 0.2081
 IR Inten    --     62.2048                17.9479                 7.7831

                      7                      8                      9
                      A                      A                      A
 Frequencies --    431.6671               475.4358               486.0270
 Red. masses --      4.8593                 3.8041                 5.2727
 Frc consts  --      0.5335                 0.5066                 0.7338
 IR Inten    --      3.1249                 1.6370                 8.8600

                     10                     11                     12
                      A                      A                      A
 Frequencies --    545.8942               644.8826               727.5259
 Red. masses --      2.0367                 3.4324                 3.1026
 Frc consts  --      0.3576                 0.8410                 0.9675
 IR Inten    --      4.4840                 3.6515                 3.1102

                     13                     14                     15
                      A                      A                      A
 Frequencies --    813.3676               831.5907               880.6186
 Red. masses --      2.3399                 1.8929                 2.9270
 Frc consts  --      0.9121                 0.7712                 1.3374
 IR Inten    --      0.9954                 0.7153                 0.3474

                     16                     17                     18
                      A                      A                      A
 Frequencies --    907.7713               916.5064               940.9813
 Red. masses --      2.6742                 2.3782                 2.1297
 Frc consts  --      1.2983                 1.1770                 1.1111
 IR Inten    --      0.4068                 1.2184                 3.1845

                     19                     20                     21
                      A                      A                      A
 Frequencies --    983.2524              1009.6667              1020.8192
 Red. masses --      2.0199                 2.4177                 1.7541
 Frc consts  --      1.1506                 1.4521                 1.0770
 IR Inten    --     13.7875                18.3336                35.0937

                     22                     23                     24
                      A                      A                      A
 Frequencies --   1064.3547              1079.5202              1084.9365
 Red. masses --      1.1141                 2.9755                 2.8435
 Frc consts  --      0.7436                 2.0430                 1.9720
 IR Inten    --      1.6391                 7.9327                72.6233

                     25                     26                     27
                      A                      A                      A
 Frequencies --   1134.9076              1141.8978              1205.3352
 Red. masses --      1.5988                 1.2489                 1.3641
 Frc consts  --      1.2133                 0.9595                 1.1676
 IR Inten    --      1.2146                 2.3200                 6.8835

                     28                     29                     30
                      A                      A                      A
 Frequencies --   1225.3786              1232.2735              1246.6639
 Red. masses --      1.2896                 1.5698                 1.3577
 Frc consts  --      1.1409                 1.4045                 1.2433
 IR Inten    --      7.8909                54.6577                 0.2902

                     31                     32                     33
                      A                      A                      A
 Frequencies --   1269.6470              1281.4453              1284.1054
 Red. masses --      1.5703                 1.6288                 1.5133
 Frc consts  --      1.4914                 1.5759                 1.4702
 IR Inten    --      5.5960                 1.5073                32.8502

                     34                     35                     36
                      A                      A                      A
 Frequencies --   1323.6900              1343.2295              1382.6808
 Red. masses --      1.8992                 1.4020                 1.4009
 Frc consts  --      1.9606                 1.4904                 1.5780
 IR Inten    --      7.9394                 4.8661                15.6126

                     37                     38                     39
                      A                      A                      A
 Frequencies --   1427.0626              1455.4714              1485.1140
 Red. masses --      1.5073                 1.1144                 1.0853
 Frc consts  --      1.8086                 1.3910                 1.4103
 IR Inten    --     10.2307                 2.8866                 3.8007

                     40                     41                     42
                      A                      A                      A
 Frequencies --   1513.7786              1820.6272              2969.4715
 Red. masses --      1.1207                11.9165                 1.0839
 Frc consts  --      1.5131                23.2723                 5.6309
 IR Inten    --      2.3555               224.1238                50.9653

                     43                     44                     45
                      A                      A                      A
 Frequencies --   3034.3838              3050.5552              3066.3421
 Red. masses --      1.0652                 1.0597                 1.0578
 Frc consts  --      5.7785                 5.8100                 5.8600
 IR Inten    --      4.4617                37.1024                24.3865

                     46                     47                     48
                      A                      A                      A
 Frequencies --   3096.3629              3102.5371              3110.9647
 Red. masses --      1.0896                 1.0965                 1.1029
 Frc consts  --      6.1550                 6.2189                 6.2888
 IR Inten    --     30.2583                12.3938                22.0227

                     49                     50                     51
                      A                      A                      A
 Frequencies --   3117.8992              3122.1773              3815.9768
 Red. masses --      1.0981                 1.1013                 1.0663
 Frc consts  --      6.2895                 6.3253                 9.1484
 IR Inten    --     15.8395                32.0127                19.3513

 - Thermochemistry -
 -------------------
 Temperature   298.150 Kelvin.  Pressure   1.00000 Atm.
 Atom     1 has atomic number  8 and mass  15.99491

 Molecular mass:   126.06808 amu.
 Principal axes and moments of inertia in atomic units:
                           1         2         3
     Eigenvalues --   708.689541116.859461494.19260
           X            0.99830  -0.05812  -0.00420
           Y            0.05814   0.99830   0.00501
           Z            0.00391  -0.00525   0.99998
 This molecule is an asymmetric top.
 Rotational symmetry number  1.
 Warning -- assumption of classical behavior for rotation
           may cause significant error
 Rotational temperatures (Kelvin)      0.12222     0.07755     0.05797
 Rotational constants (GHZ):           2.54659     1.61591     1.20784
 Zero-point vibrational energy     422471.9 (Joules/Mol)
                                  100.97321 (Kcal/Mol)
 Warning -- explicit consideration of  10 degrees of freedom as
           vibrations may cause significant error
 Vibrational temperatures:    115.95   205.28   401.57   425.70   477.20
          (Kelvin)            571.29   621.07   684.05   699.28   785.42
                              927.84  1046.75  1170.25  1196.47  1267.01
                             1306.08  1318.65  1353.86  1414.68  1452.68
                             1468.73  1531.37  1553.19  1560.98  1632.88
                             1642.93  1734.21  1763.04  1772.96  1793.67
                             1826.74  1843.71  1847.54  1904.49  1932.61
                             1989.37  2053.22  2094.10  2136.75  2177.99
                             2619.47  4272.40  4365.80  4389.06  4411.78
                             4454.97  4463.85  4475.98  4485.96  4492.11
                             5490.33

 Zero-point correction=                           0.160911 (Hartree/Particle)
 Thermal correction to Energy=                    0.168661
 Thermal correction to Enthalpy=                  0.169605
 Thermal correction to Gibbs Free Energy=         0.128668
 Sum of electronic and zero-point Energies=           -423.042349
 Sum of electronic and thermal Energies=              -423.034599
 Sum of electronic and thermal Enthalpies=            -423.033654
 Sum of electronic and thermal Free Energies=         -423.074591

                     E (Thermal)             CV                S
                      KCal/Mol        Cal/Mol-Kelvin    Cal/Mol-Kelvin
 Total                  105.836             30.821             86.159
 Electronic               0.000              0.000              0.000
 Translational            0.889              2.981             40.409
 Rotational               0.889              2.981             28.560
 Vibrational            104.059             24.859             17.190
 Vibration     1          0.600              1.962              3.876
 Vibration     2          0.616              1.911              2.768
 Vibration     3          0.679              1.712              1.539
 Vibration     4          0.690              1.681              1.440
 Vibration     5          0.714              1.612              1.252
 Vibration     6          0.764              1.476              0.973
 Vibration     7          0.793              1.401              0.853
 Vibration     8          0.832              1.305              0.722
 Vibration     9          0.842              1.281              0.694
 Vibration    10          0.901              1.149              0.553

 Optimization completed.
    -- Stationary point found.
 Normal termination of Gaussian 09 at Tue Jan 28 01:21:49 2020.
