 Gaussian 09, Revision D.01,
 Gaussian 09:  ES64L-G09RevD.01 24-Apr-2013

 -----------------------------
 # b3lyp 6-31G(2df,p) opt Freq
 -----------------------------

 -----
 titel
 -----
 Symbolic Z-matrix:
 Charge =  0 Multiplicity = 1

 SCF Done:  E(RB3LYP) =  -423.109786250     A.U. after   13 cycles
 Optimization completed.
    -- Stationary point found.
 Normal termination of Gaussian 09 at Tue Jan 28 02:51:57 2020.

 ----------------------------------------------------------------------
 #N Geom=AllCheck Guess=TCheck SCRF=Check GenChk RB3LYP/6-31G(2df,p) Fr
 eq
 ----------------------------------------------------------------------

 Structure from the checkpoint file:  "/scratch/puck/g09_8e53d9a4-5e7d-44ec-86ce-c62929e9706f/Gau-189995.chk"
 -----
 titel
 -----
 Charge =  0 Multiplicity = 1

                         Standard orientation:
 ---------------------------------------------------------------------
 Center     Atomic      Atomic             Coordinates (Angstroms)
 Number     Number       Type             X           Y           Z
 ---------------------------------------------------------------------
      1          8           0       -2.719775   -0.443963   -0.481747
      2          6           0       -1.583626   -0.188354    0.304965
      3          6           0       -1.083770    1.292874    0.131214
      4          6           0        0.313328    0.691163    0.063740
      5          6           0        0.911406    0.029027    1.353240
      6          6           0        1.123857   -1.124212    0.339420
      7          6           0        2.078286   -0.364170   -0.644153
      8          8           0        1.458607    0.962830   -0.723947
      9          6           0       -0.216501   -0.700701   -0.319744
     10          1           0       -2.934268   -1.379604   -0.401853
     11          1           0       -1.754043   -0.464160    1.352043
     12          1           0       -1.426025    1.662726   -0.838854
     13          1           0       -1.311792    2.019214    0.914379
     14          1           0        1.795462    0.516698    1.770490
     15          1           0        0.190000   -0.192521    2.138460
     16          1           0        1.428554   -2.137071    0.611658
     17          1           0        3.093539   -0.269843   -0.245731
     18          1           0        2.117785   -0.805667   -1.646077
     19          1           0       -0.367756   -0.914480   -1.381053
 ---------------------------------------------------------------------

 SCF Done:  E(RB3LYP) =  -423.109786250     A.U. after    1 cycles

 The electronic state is 1-A.
 Alpha  occ. eigenvalues --  -19.14294 -19.13468 -10.24538 -10.23454 -10.22896
 Alpha  occ. eigenvalues --  -10.20412 -10.18777 -10.18238 -10.17539  -1.03963
 Alpha  occ. eigenvalues --   -1.02592  -0.86372  -0.77631  -0.69158  -0.65614
 Alpha  occ. eigenvalues --   -0.61823  -0.57030  -0.52778  -0.52293  -0.49635
 Alpha  occ. eigenvalues --   -0.47362  -0.46338  -0.42598  -0.40897  -0.39082
 Alpha  occ. eigenvalues --   -0.36833  -0.36440  -0.34993  -0.33361  -0.31763
 Alpha  occ. eigenvalues --   -0.31561  -0.27466  -0.26835  -0.22528
 Alpha virt. eigenvalues --    0.06987   0.08079   0.10380   0.11560   0.12279
 Alpha virt. eigenvalues --    0.13623   0.14490   0.15720   0.16056   0.16868
 Alpha virt. eigenvalues --    0.17085   0.18819   0.20134   0.21238   0.21946

 Mulliken charges:
               1
     1  O   -0.427485
     2  C    0.076263
     3  C   -0.345398
     4  C    0.458472
     5  C   -0.284698
     6  C   -0.128529
     7  C   -0.083037
     8  O   -0.342850
     9  C   -0.068659
    10  H    0.283006
    11  H    0.074967
    12  H    0.128793
    13  H    0.102698
    14  H    0.097405
    15  H    0.104024
    16  H    0.065870
    17  H    0.106714
    18  H    0.104565
    19  H    0.077878
 Sum of Mulliken charges =   0.00000

 Dipole moment (field-independent basis, Debye):
    X=             -0.0658    Y=             -2.1691    Z=              1.2703  Tot=              2.5146
 Quadrupole moment (field-independent basis, Debye-Ang):
   XX=            -54.0737   YY=            -51.7295   ZZ=            -53.2168
   XY=              0.3356   XZ=             -0.8113   YZ=              1.9886

  Exact polarizability:  87.487  -3.466  69.060   0.146   2.600  68.843
 Approx polarizability: 118.407  -2.208 107.466   0.741   2.150 105.609

                      1                      2                      3
                      A                      A                      A
 Frequencies --    169.8478               264.2799               276.4304
 Red. masses --      3.5291                 2.4007                 1.6034
 Frc consts  --      0.0600                 0.0988                 0.0722
 IR Inten    --      0.2304                12.0310                42.5832

                      4                      5                      6
                      A                      A                      A
 Frequencies --    328.1084               374.9297               407.6013
 Red. masses --      1.9064                 2.8173                 3.5272
 Frc consts  --      0.1209                 0.2333                 0.3453
 IR Inten    --     50.4808                12.6977                 5.3010

                      7                      8                      9
                      A                      A                      A
 Frequencies --    485.6714               494.3174               548.3053
 Red. masses --      2.2170                 2.9408                 2.9671
 Frc consts  --      0.3081                 0.4234                 0.5256
 IR Inten    --      8.5527                 1.2097                10.3021

                     10                     11                     12
                      A                      A                      A
 Frequencies --    647.7250               704.1024               815.0078
 Red. masses --      3.9837                 2.8193                 2.5700
 Frc consts  --      0.9847                 0.8235                 1.0058
 IR Inten    --      2.4903                 1.6038                 3.9691

                     13                     14                     15
                      A                      A                      A
 Frequencies --    839.0444               860.2574               881.1029
 Red. masses --      3.7473                 2.5734                 2.3800
 Frc consts  --      1.5543                 1.1220                 1.0886
 IR Inten    --     14.3200                 0.9388                10.0548

                     16                     17                     18
                      A                      A                      A
 Frequencies --    884.6245               922.3214               932.2345
 Red. masses --      3.2240                 3.5005                 2.1481
 Frc consts  --      1.4865                 1.7545                 1.0999
 IR Inten    --      3.8131                32.3860                 4.9082

                     19                     20                     21
                      A                      A                      A
 Frequencies --    982.9375              1004.3978              1008.7758
 Red. masses --      2.2084                 2.0036                 1.5719
 Frc consts  --      1.2571                 1.1909                 0.9425
 IR Inten    --     24.4253                20.9535                10.7261

                     22                     23                     24
                      A                      A                      A
 Frequencies --   1038.7422              1066.6882              1079.6271
 Red. masses --      2.2459                 1.5739                 1.6436
 Frc consts  --      1.4277                 1.0551                 1.1287
 IR Inten    --     37.9656                28.7181                18.9930

                     25                     26                     27
                      A                      A                      A
 Frequencies --   1104.4003              1149.9777              1168.2885
 Red. masses --      1.9783                 1.9503                 1.2952
 Frc consts  --      1.4217                 1.5196                 1.0415
 IR Inten    --     26.1467                20.9477                 3.5574

                     28                     29                     30
                      A                      A                      A
 Frequencies --   1181.6345              1205.7859              1231.6309
 Red. masses --      1.6346                 1.5517                 1.3424
 Frc consts  --      1.3447                 1.3292                 1.1997
 IR Inten    --      1.2272                18.7424                 3.9307

                     31                     32                     33
                      A                      A                      A
 Frequencies --   1231.9807              1245.3368              1258.4378
 Red. masses --      1.3959                 1.6872                 1.6850
 Frc consts  --      1.2483                 1.5416                 1.5722
 IR Inten    --     13.4551                36.8013                12.9578

                     34                     35                     36
                      A                      A                      A
 Frequencies --   1277.5442              1305.4552              1330.5135
 Red. masses --      1.3252                 2.2637                 1.8115
 Frc consts  --      1.2744                 2.2730                 1.8894
 IR Inten    --     22.2617                 8.9307                49.5149

                     37                     38                     39
                      A                      A                      A
 Frequencies --   1356.1272              1424.5747              1479.8746
 Red. masses --      1.5069                 1.3660                 1.1569
 Frc consts  --      1.6328                 1.6334                 1.4928
 IR Inten    --     17.1524                 5.0996                 2.1775

                     40                     41                     42
                      A                      A                      A
 Frequencies --   1497.1540              1516.4595              3022.9542
 Red. masses --      1.1101                 1.1180                 1.0857
 Frc consts  --      1.4661                 1.5148                 5.8454
 IR Inten    --      3.0304                 0.3637                38.8061

                     43                     44                     45
                      A                      A                      A
 Frequencies --   3034.7232              3065.0874              3073.0009
 Red. masses --      1.0567                 1.0578                 1.0616
 Frc consts  --      5.7336                 5.8551                 5.9063
 IR Inten    --     54.2031                28.8944                33.1917

                     46                     47                     48
                      A                      A                      A
 Frequencies --   3078.1259              3086.2768              3091.6205
 Red. masses --      1.0862                 1.1080                 1.0893
 Frc consts  --      6.0638                 6.2182                 6.1346
 IR Inten    --     20.5880                47.9962                54.5666

                     49                     50                     51
                      A                      A                      A
 Frequencies --   3128.3780              3146.8043              3807.4093
 Red. masses --      1.1089                 1.1064                 1.0659
 Frc consts  --      6.3938                 6.4553                 9.1039
 IR Inten    --     18.5266                24.4521                24.0042

 - Thermochemistry -
 -------------------
 Temperature   298.150 Kelvin.  Pressure   1.00000 Atm.
 Atom     1 has atomic number  8 and mass  15.99491

 Molecular mass:   126.06808 amu.
 Principal axes and moments of inertia in atomic units:
                           1         2         3
     Eigenvalues --   505.854371320.291611403.34536
           X            0.99981  -0.01941  -0.00349
           Y            0.01965   0.99535   0.09426
           Z            0.00164  -0.09431   0.99554
 This molecule is an asymmetric top.
 Rotational symmetry number  1.
 Warning -- assumption of classical behavior for rotation
           may cause significant error
 Rotational temperatures (Kelvin)      0.17122     0.06560     0.06172
 Rotational constants (GHZ):           3.56771     1.36693     1.28603
 Zero-point vibrational energy     421783.2 (Joules/Mol)
                                  100.80859 (Kcal/Mol)
 Warning -- explicit consideration of   9 degrees of freedom as
           vibrations may cause significant error
 Vibrational temperatures:    244.37   380.24   397.72   472.07   539.44
          (Kelvin)            586.45   698.77   711.21   788.89   931.93
                             1013.05  1172.61  1207.20  1237.72  1267.71
                             1272.78  1327.01  1341.28  1414.23  1445.10
                             1451.40  1494.52  1534.72  1553.34  1588.98
                             1654.56  1680.90  1700.11  1734.85  1772.04
                             1772.54  1791.76  1810.61  1838.10  1878.26
                             1914.31  1951.16  2049.64  2129.21  2154.07
                             2181.84  4349.35  4366.28  4409.97  4421.36
                             4428.73  4440.46  4448.15  4501.03  4527.54
                             5478.01

 Zero-point correction=                           0.160649 (Hartree/Particle)
 Thermal correction to Energy=                    0.167766
 Thermal correction to Enthalpy=                  0.168710
 Thermal correction to Gibbs Free Energy=         0.129585
 Sum of electronic and zero-point Energies=           -422.949138
 Sum of electronic and thermal Energies=              -422.942020
 Sum of electronic and thermal Enthalpies=            -422.941076
 Sum of electronic and thermal Free Energies=         -422.980201

                     E (Thermal)             CV                S
                      KCal/Mol        Cal/Mol-Kelvin    Cal/Mol-Kelvin
 Total                  105.275             29.927             82.344
 Electronic               0.000              0.000              0.000
 Translational            0.889              2.981             40.409
 Rotational               0.889              2.981             28.329
 Vibrational            103.497             23.965             13.607
 Vibration     1          0.625              1.880              2.437
 Vibration     2          0.671              1.738              1.633
 Vibration     3          0.678              1.717              1.556
 Vibration     4          0.711              1.619              1.269
 Vibration     5          0.746              1.524              1.060
 Vibration     6          0.772              1.454              0.935
 Vibration     7          0.842              1.282              0.695
 Vibration     8          0.850              1.263              0.672
 Vibration     9          0.904              1.143              0.548

 Optimization completed.
    -- Stationary point found.
 Normal termination of Gaussian 09 at Tue Jan 28 03:41:43 2020.
