 Gaussian 09, Revision D.01,
 Gaussian 09:  ES64L-G09RevD.01 24-Apr-2013

 -----------------------------
 # b3lyp 6-31G(2df,p) opt Freq
 -----------------------------

 -----
 titel
 -----
 Symbolic Z-matrix:
 Charge =  0 Multiplicity = 1

 SCF Done:  E(RB3LYP) =  -423.087801336     A.U. after   14 cycles
 Optimization completed.
    -- Stationary point found.
 Normal termination of Gaussian 09 at Tue Jan 28 08:14:20 2020.

 ----------------------------------------------------------------------
 #N Geom=AllCheck Guess=TCheck SCRF=Check GenChk RB3LYP/6-31G(2df,p) Fr
 eq
 ----------------------------------------------------------------------

 Structure from the checkpoint file:  "/scratch/puck/g09_f2b60580-d168-4cd8-9691-76c952050db7/Gau-81140.chk"
 -----
 titel
 -----
 Charge =  0 Multiplicity = 1

                         Standard orientation:
 ---------------------------------------------------------------------
 Center     Atomic      Atomic             Coordinates (Angstroms)
 Number     Number       Type             X           Y           Z
 ---------------------------------------------------------------------
      1          6           0        2.557243   -0.899263   -0.186459
      2          6           0        1.260591   -0.338480    0.372703
      3          8           0        1.297520    1.127454    0.222704
      4          6           0        0.060865    1.689948   -0.262482
      5          6           0       -0.865926    0.513744   -0.128465
      6          6           0       -1.459017   -0.102763    1.168311
      7          6           0       -1.443863   -1.153918    0.052007
      8          8           0       -1.977008   -0.104327   -0.890750
      9          6           0       -0.005245   -0.720432   -0.380928
     10          1           0        3.416662   -0.431518    0.301028
     11          1           0        2.608078   -1.979817   -0.016247
     12          1           0        2.628621   -0.710679   -1.261848
     13          1           0        1.200448   -0.558731    1.445413
     14          1           0       -0.194618    2.552660    0.360737
     15          1           0        0.159943    2.012887   -1.307376
     16          1           0       -0.808233   -0.241498    2.032612
     17          1           0       -2.448780    0.266654    1.435655
     18          1           0       -1.925861   -2.129703   -0.009366
     19          1           0        0.171759   -0.898282   -1.444362
 ---------------------------------------------------------------------

 SCF Done:  E(RB3LYP) =  -423.087801336     A.U. after    1 cycles

 The electronic state is 1-A.
 Alpha  occ. eigenvalues --  -19.14070 -19.13647 -10.26159 -10.25155 -10.24092
 Alpha  occ. eigenvalues --  -10.23701 -10.19596 -10.19124 -10.17846  -1.06192
 Alpha  occ. eigenvalues --   -1.01859  -0.80801  -0.77105  -0.71360  -0.68515
 Alpha  occ. eigenvalues --   -0.63478  -0.58389  -0.53899  -0.50928  -0.48581
 Alpha  occ. eigenvalues --   -0.47153  -0.45406  -0.43472  -0.41784  -0.39006
 Alpha  occ. eigenvalues --   -0.38675  -0.37333  -0.35275  -0.34625  -0.33596
 Alpha  occ. eigenvalues --   -0.31305  -0.28785  -0.25351  -0.24229
 Alpha virt. eigenvalues --    0.06560   0.08864   0.10109   0.11187   0.11786
 Alpha virt. eigenvalues --    0.12010   0.12545   0.14663   0.15225   0.15704
 Alpha virt. eigenvalues --    0.17068   0.17389   0.17990   0.18936   0.21203

 Mulliken charges:
               1
     1  C   -0.405597
     2  C    0.109006
     3  O   -0.307405
     4  C   -0.190005
     5  C    0.394204
     6  C   -0.272620
     7  C   -0.004865
     8  O   -0.366429
     9  C   -0.034751
    10  H    0.127869
    11  H    0.116072
    12  H    0.121902
    13  H    0.080113
    14  H    0.112180
    15  H    0.113039
    16  H    0.110388
    17  H    0.110344
    18  H    0.098388
    19  H    0.088166
 Sum of Mulliken charges =   0.00000

 Dipole moment (field-independent basis, Debye):
    X=              0.3565    Y=             -1.0178    Z=              1.0127  Tot=              1.4794
 Quadrupole moment (field-independent basis, Debye-Ang):
   XX=            -57.5829   YY=            -50.7695   ZZ=            -53.3201
   XY=             -1.7907   XZ=             -3.6177   YZ=             -0.9571

  Exact polarizability:  83.720  -0.011  75.439  -2.159  -0.371  67.398
 Approx polarizability: 115.409   2.127 113.499   3.028  -0.878 106.275

                      1                      2                      3
                      A                      A                      A
 Frequencies --     86.5600               219.3662               238.2941
 Red. masses --      3.5971                 2.9742                 1.1596
 Frc consts  --      0.0159                 0.0843                 0.0388
 IR Inten    --      2.8173                 3.1655                 0.0319

                      4                      5                      6
                      A                      A                      A
 Frequencies --    282.9669               302.5059               416.9110
 Red. masses --      2.5253                 2.3307                 3.1605
 Frc consts  --      0.1191                 0.1257                 0.3237
 IR Inten    --      1.3695                 2.2479                 2.2437

                      7                      8                      9
                      A                      A                      A
 Frequencies --    459.0899               530.4265               581.7800
 Red. masses --      3.3046                 5.4745                 2.5963
 Frc consts  --      0.4104                 0.9075                 0.5177
 IR Inten    --      2.2293                 2.4402                 4.7449

                     10                     11                     12
                      A                      A                      A
 Frequencies --    624.4070               700.9553               727.1771
 Red. masses --      4.2997                 3.7732                 3.8490
 Frc consts  --      0.9877                 1.0923                 1.1992
 IR Inten    --      8.0428                 9.1880                 3.3908

                     13                     14                     15
                      A                      A                      A
 Frequencies --    801.1481               840.5490               888.5526
 Red. masses --      3.6302                 2.8186                 3.7168
 Frc consts  --      1.3728                 1.1733                 1.7290
 IR Inten    --     33.4928                 7.2519                 1.1400

                     16                     17                     18
                      A                      A                      A
 Frequencies --    907.2211               941.2503               969.8736
 Red. masses --      2.0302                 2.0495                 2.8963
 Frc consts  --      0.9845                 1.0698                 1.6052
 IR Inten    --      8.7282                 3.2383                69.1400

                     19                     20                     21
                      A                      A                      A
 Frequencies --    991.7428              1017.4154              1035.2592
 Red. masses --      2.8167                 1.8816                 1.5557
 Frc consts  --      1.6323                 1.1475                 0.9824
 IR Inten    --     19.5845                17.7788                 0.5188

                     22                     23                     24
                      A                      A                      A
 Frequencies --   1038.1136              1074.4142              1118.7871
 Red. masses --      1.9443                 1.9938                 1.6847
 Frc consts  --      1.2345                 1.3560                 1.2424
 IR Inten    --      6.0789                27.7560                 9.2385

                     25                     26                     27
                      A                      A                      A
 Frequencies --   1125.1776              1152.5384              1158.2946
 Red. masses --      1.9331                 1.8148                 1.8192
 Frc consts  --      1.4420                 1.4203                 1.4380
 IR Inten    --     13.1318                 3.2847                 5.3051

                     28                     29                     30
                      A                      A                      A
 Frequencies --   1190.4284              1199.9751              1207.7896
 Red. masses --      1.5594                 1.2835                 1.4135
 Frc consts  --      1.3020                 1.0889                 1.2149
 IR Inten    --     19.0280                 1.0437                15.4312

                     31                     32                     33
                      A                      A                      A
 Frequencies --   1259.8958              1282.0270              1321.7580
 Red. masses --      1.9435                 1.3583                 2.2351
 Frc consts  --      1.8176                 1.3153                 2.3007
 IR Inten    --      4.8987                 4.5940                12.2804

                     34                     35                     36
                      A                      A                      A
 Frequencies --   1341.3548              1358.5599              1406.4535
 Red. masses --      1.2681                 1.5981                 1.2525
 Frc consts  --      1.3443                 1.7379                 1.4598
 IR Inten    --      4.8227                 1.1953                 1.9628

                     37                     38                     39
                      A                      A                      A
 Frequencies --   1419.1731              1484.1442              1496.3524
 Red. masses --      1.6982                 1.0607                 1.0881
 Frc consts  --      2.0152                 1.3765                 1.4355
 IR Inten    --     10.4459                 2.7632                 1.0806

                     40                     41                     42
                      A                      A                      A
 Frequencies --   1501.1091              1514.7705              3015.0362
 Red. masses --      1.1630                 1.0943                 1.0622
 Frc consts  --      1.5440                 1.4794                 5.6888
 IR Inten    --      6.7190                 1.0198                67.0665

                     43                     44                     45
                      A                      A                      A
 Frequencies --   3022.5692              3039.3192              3075.5518
 Red. masses --      1.0833                 1.0352                 1.1027
 Frc consts  --      5.8311                 5.6344                 6.1454
 IR Inten    --     15.8286                16.6454                26.2336

                     46                     47                     48
                      A                      A                      A
 Frequencies --   3083.8491              3088.6076              3112.2841
 Red. masses --      1.0565                 1.0839                 1.1011
 Frc consts  --      5.9199                 6.0919                 6.2839
 IR Inten    --     21.3559                31.5112                23.7462

                     49                     50                     51
                      A                      A                      A
 Frequencies --   3119.1361              3121.7131              3159.8951
 Red. masses --      1.0936                 1.1021                 1.1113
 Frc consts  --      6.2690                 6.3278                 6.5375
 IR Inten    --     54.2165                22.3454                21.5694

 - Thermochemistry -
 -------------------
 Temperature   298.150 Kelvin.  Pressure   1.00000 Atm.
 Atom     1 has atomic number  6 and mass  12.00000

 Molecular mass:   126.06808 amu.
 Principal axes and moments of inertia in atomic units:
                           1         2         3
     Eigenvalues --   574.273481188.842481416.26176
           X            0.99907  -0.03444  -0.02595
           Y            0.03430   0.99939  -0.00589
           Z            0.02614   0.00500   0.99965
 This molecule is an asymmetric top.
 Rotational symmetry number  1.
 Warning -- assumption of classical behavior for rotation
           may cause significant error
 Rotational temperatures (Kelvin)      0.15082     0.07286     0.06116
 Rotational constants (GHZ):           3.14265     1.51807     1.27430
 Zero-point vibrational energy     419007.2 (Joules/Mol)
                                  100.14512 (Kcal/Mol)
 Warning -- explicit consideration of   9 degrees of freedom as
           vibrations may cause significant error
 Vibrational temperatures:    124.54   315.62   342.85   407.13   435.24
          (Kelvin)            599.84   660.53   763.16   837.05   898.38
                             1008.52  1046.24  1152.67  1209.36  1278.43
                             1305.29  1354.25  1395.43  1426.89  1463.83
                             1489.51  1493.61  1545.84  1609.68  1618.88
                             1658.24  1666.53  1712.76  1726.49  1737.74
                             1812.71  1844.55  1901.71  1929.91  1954.66
                             2023.57  2041.87  2135.35  2152.91  2159.76
                             2179.41  4337.96  4348.80  4372.90  4425.03
                             4436.97  4443.81  4477.88  4487.74  4491.44
                             4546.38

 Zero-point correction=                           0.159591 (Hartree/Particle)
 Thermal correction to Energy=                    0.167091
 Thermal correction to Enthalpy=                  0.168035
 Thermal correction to Gibbs Free Energy=         0.127750
 Sum of electronic and zero-point Energies=           -422.928210
 Sum of electronic and thermal Energies=              -422.920710
 Sum of electronic and thermal Enthalpies=            -422.919766
 Sum of electronic and thermal Free Energies=         -422.960051

                     E (Thermal)             CV                S
                      KCal/Mol        Cal/Mol-Kelvin    Cal/Mol-Kelvin
 Total                  104.851             30.156             84.787
 Electronic               0.000              0.000              0.000
 Translational            0.889              2.981             40.409
 Rotational               0.889              2.981             28.360
 Vibrational            103.074             24.194             16.018
 Vibration     1          0.601              1.959              3.736
 Vibration     2          0.647              1.812              1.964
 Vibration     3          0.656              1.782              1.816
 Vibration     4          0.682              1.705              1.516
 Vibration     5          0.694              1.669              1.403
 Vibration     6          0.780              1.434              0.903
 Vibration     7          0.817              1.341              0.769
 Vibration     8          0.885              1.183              0.586
 Vibration     9          0.939              1.071              0.482

 Optimization completed.
    -- Stationary point found.
 Normal termination of Gaussian 09 at Tue Jan 28 09:03:52 2020.
