 Gaussian 09, Revision D.01,
 Gaussian 09:  ES64L-G09RevD.01 24-Apr-2013

 -----------------------------
 # b3lyp 6-31G(2df,p) opt Freq
 -----------------------------

 -----
 titel
 -----
 Symbolic Z-matrix:
 Charge =  0 Multiplicity = 1

 SCF Done:  E(RB3LYP) =  -423.168970134     A.U. after   14 cycles
 Optimization completed.
    -- Stationary point found.
 Normal termination of Gaussian 09 at Tue Jan 28 12:10:54 2020.

 ----------------------------------------------------------------------
 #N Geom=AllCheck Guess=TCheck SCRF=Check GenChk RB3LYP/6-31G(2df,p) Fr
 eq
 ----------------------------------------------------------------------

 Structure from the checkpoint file:  "/scratch/puck/g09_bfd68ad9-562e-478e-99cf-fd9ecafd60b0/Gau-25566.chk"
 -----
 titel
 -----
 Charge =  0 Multiplicity = 1

                         Standard orientation:
 ---------------------------------------------------------------------
 Center     Atomic      Atomic             Coordinates (Angstroms)
 Number     Number       Type             X           Y           Z
 ---------------------------------------------------------------------
      1          8           0       -2.371625   -0.537825   -0.755791
      2          6           0       -1.797379    0.387337    0.154508
      3          6           0       -0.303840    0.174503    0.363592
      4          6           0        0.443256    1.423347    0.895511
      5          8           0        1.104855    1.640095   -0.367405
      6          6           0        0.600168    0.375373   -0.882509
      7          6           0        1.590494   -0.752466   -0.809953
      8          6           0        1.326975   -1.575851    0.206113
      9          6           0        0.100740   -1.173485    0.994973
     10          1           0       -2.391857   -1.403331   -0.336662
     11          1           0       -1.961948    1.375044   -0.289386
     12          1           0       -2.320465    0.375421    1.124923
     13          1           0       -0.184167    2.278519    1.177876
     14          1           0        1.153906    1.218630    1.707126
     15          1           0        0.133682    0.510785   -1.863800
     16          1           0        2.416632   -0.853177   -1.504524
     17          1           0        1.909249   -2.455644    0.460955
     18          1           0       -0.690063   -1.933479    0.906145
     19          1           0        0.306710   -1.083470    2.069506
 ---------------------------------------------------------------------

 SCF Done:  E(RB3LYP) =  -423.168970134     A.U. after    1 cycles

 The electronic state is 1-A.
 Alpha  occ. eigenvalues --  -19.14060 -19.12658 -10.23152 -10.22805 -10.22755
 Alpha  occ. eigenvalues --  -10.19589 -10.19514 -10.19215 -10.18192  -1.03274
 Alpha  occ. eigenvalues --   -1.01999  -0.83745  -0.75659  -0.70367  -0.66139
 Alpha  occ. eigenvalues --   -0.65393  -0.55437  -0.53414  -0.52071  -0.48650
 Alpha  occ. eigenvalues --   -0.48287  -0.45271  -0.43339  -0.41359  -0.40828
 Alpha  occ. eigenvalues --   -0.38992  -0.38278  -0.36196  -0.33390  -0.31355
 Alpha  occ. eigenvalues --   -0.29725  -0.27315  -0.25630  -0.24276
 Alpha virt. eigenvalues --    0.00827   0.06192   0.09109   0.10970   0.12164
 Alpha virt. eigenvalues --    0.12409   0.13319   0.14379   0.16146   0.17071
 Alpha virt. eigenvalues --    0.17468   0.18135   0.20742   0.21302   0.22255

 Mulliken charges:
               1
     1  O   -0.418482
     2  C   -0.164102
     3  C    0.272806
     4  C   -0.130379
     5  O   -0.296537
     6  C    0.062350
     7  C   -0.084887
     8  C   -0.060191
     9  C   -0.351726
    10  H    0.286161
    11  H    0.117355
    12  H    0.087955
    13  H    0.098953
    14  H    0.095820
    15  H    0.088211
    16  H    0.101992
    17  H    0.099540
    18  H    0.085666
    19  H    0.109495
 Sum of Mulliken charges =   0.00000

 Dipole moment (field-independent basis, Debye):
    X=             -0.4284    Y=             -1.8958    Z=              1.8882  Tot=              2.7098
 Quadrupole moment (field-independent basis, Debye-Ang):
   XX=            -56.0793   YY=            -52.5252   ZZ=            -52.3728
   XY=             -2.2978   XZ=             -3.0972   YZ=              0.4541

  Exact polarizability:  73.682  -3.677  78.255  -4.623  -3.315  72.763
 Approx polarizability: 100.741   0.810 117.961  -7.583 -12.393 118.006

                      1                      2                      3
                      A                      A                      A
 Frequencies --     95.6766               107.5148               199.8248
 Red. masses --      2.9668                 3.4147                 3.2862
 Frc consts  --      0.0160                 0.0233                 0.0773
 IR Inten    --      0.2896                 4.5433                13.4575

                      4                      5                      6
                      A                      A                      A
 Frequencies --    245.1335               265.2833               298.9995
 Red. masses --      1.3151                 3.1316                 2.0159
 Frc consts  --      0.0466                 0.1298                 0.1062
 IR Inten    --     88.4551                11.4467                24.2036

                      7                      8                      9
                      A                      A                      A
 Frequencies --    358.8139               466.3278               495.6875
 Red. masses --      2.1324                 3.4153                 2.4881
 Frc consts  --      0.1618                 0.4376                 0.3602
 IR Inten    --      1.5123                 4.7278                 5.4402

                     10                     11                     12
                      A                      A                      A
 Frequencies --    608.1155               693.0662               745.8768
 Red. masses --      4.2814                 4.5358                 1.5823
 Frc consts  --      0.9328                 1.2837                 0.5186
 IR Inten    --      3.3148                 3.1679                20.7911

                     13                     14                     15
                      A                      A                      A
 Frequencies --    787.3363               870.1389               897.7074
 Red. masses --      3.5033                 2.5728                 2.1145
 Frc consts  --      1.2795                 1.1477                 1.0040
 IR Inten    --      4.0808                11.6923                 1.6501

                     16                     17                     18
                      A                      A                      A
 Frequencies --    928.2619               938.5035               963.3281
 Red. masses --      1.5591                 2.0879                 1.9552
 Frc consts  --      0.7915                 1.0835                 1.0690
 IR Inten    --      3.6821                 2.8759                 7.9625

                     19                     20                     21
                      A                      A                      A
 Frequencies --    973.1549               981.7092              1011.3372
 Red. masses --      3.0748                 1.3595                 6.7383
 Frc consts  --      1.7157                 0.7719                 4.0606
 IR Inten    --     51.3633                 4.3873                45.0428

                     22                     23                     24
                      A                      A                      A
 Frequencies --   1025.8024              1069.6546              1095.5414
 Red. masses --      2.3974                 4.2670                 2.7510
 Frc consts  --      1.4863                 2.8765                 1.9453
 IR Inten    --     22.6296                65.4547                29.5615

                     25                     26                     27
                      A                      A                      A
 Frequencies --   1111.7425              1135.3938              1156.6514
 Red. masses --      1.2649                 1.3811                 1.2359
 Frc consts  --      0.9211                 1.0490                 0.9741
 IR Inten    --      8.8383                16.1349                 1.7731

                     28                     29                     30
                      A                      A                      A
 Frequencies --   1192.0759              1230.0945              1266.9961
 Red. masses --      1.5467                 1.5366                 1.7802
 Frc consts  --      1.2950                 1.3699                 1.6837
 IR Inten    --      0.5087                 0.1502                 3.1334

                     31                     32                     33
                      A                      A                      A
 Frequencies --   1277.1891              1308.4009              1342.2862
 Red. masses --      1.5940                 1.3822                 1.4940
 Frc consts  --      1.5320                 1.3941                 1.5859
 IR Inten    --     17.4354                10.5821                 0.6758

                     34                     35                     36
                      A                      A                      A
 Frequencies --   1366.8007              1371.8997              1386.5774
 Red. masses --      1.8787                 1.6322                 1.3504
 Frc consts  --      2.0679                 1.8100                 1.5297
 IR Inten    --      2.5998                11.1283                 3.0960

                     37                     38                     39
                      A                      A                      A
 Frequencies --   1420.2419              1480.3329              1499.9579
 Red. masses --      1.2419                 1.1007                 1.0811
 Frc consts  --      1.4759                 1.4211                 1.4332
 IR Inten    --     37.8569                 3.4345                 1.1278

                     40                     41                     42
                      A                      A                      A
 Frequencies --   1518.2577              1675.1414              2970.6505
 Red. masses --      1.0980                 6.1879                 1.0698
 Frc consts  --      1.4912                10.2304                 5.5623
 IR Inten    --      0.7631                 1.9082                48.5958

                     43                     44                     45
                      A                      A                      A
 Frequencies --   2988.9631              3002.5029              3033.8903
 Red. masses --      1.0690                 1.0554                 1.0915
 Frc consts  --      5.6267                 5.6056                 5.9194
 IR Inten    --     58.4276                68.3648                27.4314

                     46                     47                     48
                      A                      A                      A
 Frequencies --   3046.8637              3057.3383              3070.9499
 Red. masses --      1.1095                 1.0864                 1.0930
 Frc consts  --      6.0686                 5.9833                 6.0731
 IR Inten    --     38.9246                28.8174                31.7861

                     49                     50                     51
                      A                      A                      A
 Frequencies --   3178.5552              3208.0843              3826.3555
 Red. masses --      1.0860                 1.1024                 1.0660
 Frc consts  --      6.4646                 6.6844                 9.1957
 IR Inten    --      9.9097                18.8986                13.7880

 - Thermochemistry -
 -------------------
 Temperature   298.150 Kelvin.  Pressure   1.00000 Atm.
 Atom     1 has atomic number  8 and mass  15.99491

 Molecular mass:   126.06808 amu.
 Principal axes and moments of inertia in atomic units:
                           1         2         3
     Eigenvalues --   787.891061084.769431378.31319
           X            0.99820  -0.05798  -0.01530
           Y            0.05807   0.99830   0.00585
           Z            0.01494  -0.00673   0.99987
 This molecule is an asymmetric top.
 Rotational symmetry number  1.
 Warning -- assumption of classical behavior for rotation
           may cause significant error
 Rotational temperatures (Kelvin)      0.10993     0.07985     0.06284
 Rotational constants (GHZ):           2.29060     1.66371     1.30938
 Zero-point vibrational energy     420170.3 (Joules/Mol)
                                  100.42311 (Kcal/Mol)
 Warning -- explicit consideration of  10 degrees of freedom as
           vibrations may cause significant error
 Vibrational temperatures:    137.66   154.69   287.50   352.69   381.68
          (Kelvin)            430.19   516.25   670.94   713.18   874.94
                              997.17  1073.15  1132.80  1251.93  1291.60
                             1335.56  1350.30  1386.01  1400.15  1412.46
                             1455.09  1475.90  1538.99  1576.24  1599.55
                             1633.58  1664.16  1715.13  1769.83  1822.92
                             1837.59  1882.49  1931.25  1966.52  1973.86
                             1994.97  2043.41  2129.87  2158.10  2184.43
                             2410.15  4274.10  4300.45  4319.93  4365.09
                             4383.75  4398.82  4418.41  4573.23  4615.71
                             5505.27

 Zero-point correction=                           0.160034 (Hartree/Particle)
 Thermal correction to Energy=                    0.168196
 Thermal correction to Enthalpy=                  0.169140
 Thermal correction to Gibbs Free Energy=         0.127247
 Sum of electronic and zero-point Energies=           -423.008936
 Sum of electronic and thermal Energies=              -423.000774
 Sum of electronic and thermal Enthalpies=            -422.999830
 Sum of electronic and thermal Free Energies=         -423.041723

                     E (Thermal)             CV                S
                      KCal/Mol        Cal/Mol-Kelvin    Cal/Mol-Kelvin
 Total                  105.544             31.243             88.170
 Electronic               0.000              0.000              0.000
 Translational            0.889              2.981             40.409
 Rotational               0.889              2.981             28.556
 Vibrational            103.767             25.281             19.205
 Vibration     1          0.603              1.952              3.541
 Vibration     2          0.606              1.943              3.313
 Vibration     3          0.638              1.840              2.135
 Vibration     4          0.660              1.771              1.765
 Vibration     5          0.671              1.737              1.627
 Vibration     6          0.692              1.676              1.422
 Vibration     7          0.734              1.557              1.127
 Vibration     8          0.824              1.325              0.748
 Vibration     9          0.851              1.260              0.669
 Vibration    10          0.967              1.015              0.436

 Normal termination of Gaussian 09 at Tue Jan 28 12:59:41 2020.
