 Gaussian 09, Revision D.01,
 Gaussian 09:  ES64L-G09RevD.01 24-Apr-2013

 -----------------------------
 # b3lyp 6-31G(2df,p) opt Freq
 -----------------------------

 -----
 titel
 -----
 Symbolic Z-matrix:
 Charge =  0 Multiplicity = 1

 SCF Done:  E(RB3LYP) =  -423.145725249     A.U. after   14 cycles
 Optimization completed.
    -- Stationary point found.
 Normal termination of Gaussian 09 at Mon Jan 27 15:54:28 2020.

 ----------------------------------------------------------------------
 #N Geom=AllCheck Guess=TCheck SCRF=Check GenChk RB3LYP/6-31G(2df,p) Fr
 eq
 ----------------------------------------------------------------------

 Structure from the checkpoint file:  "/scratch/puck/g09_6430e192-0fb3-4dc5-addb-bf5df129433a/Gau-163862.chk"
 -----
 titel
 -----
 Charge =  0 Multiplicity = 1

                         Standard orientation:
 ---------------------------------------------------------------------
 Center     Atomic      Atomic             Coordinates (Angstroms)
 Number     Number       Type             X           Y           Z
 ---------------------------------------------------------------------
      1          6           0        2.754036   -1.459155   -0.107306
      2          6           0        1.754805   -0.415323    0.392824
      3          8           0        0.505179   -0.713789   -0.216826
      4          6           0       -0.583732    0.036678    0.284150
      5          6           0       -1.845147   -0.440669   -0.434323
      6          6           0       -3.033980    0.445663   -0.140728
      7          8           0       -4.092596    0.061228    0.283285
      8          6           0        2.200641    0.953593    0.094880
      9          6           0        2.566270    2.071254   -0.154805
     10          1           0        2.393678   -2.458929    0.146758
     11          1           0        2.859341   -1.385597   -1.192220
     12          1           0        3.731845   -1.300358    0.353396
     13          1           0        1.652339   -0.510470    1.487378
     14          1           0       -0.681563   -0.109545    1.372335
     15          1           0       -0.424150    1.111751    0.109654
     16          1           0       -1.649158   -0.391303   -1.514608
     17          1           0       -2.088117   -1.473152   -0.173416
     18          1           0       -2.864130    1.527009   -0.357174
     19          1           0        2.891898    3.058832   -0.371921
 ---------------------------------------------------------------------

 SCF Done:  E(RB3LYP) =  -423.145725249     A.U. after    1 cycles

 The electronic state is 1-A.
 Alpha  occ. eigenvalues --  -19.15472 -19.14244 -10.27529 -10.26623 -10.24392
 Alpha  occ. eigenvalues --  -10.19756 -10.18945 -10.18771 -10.18526  -1.05018
 Alpha  occ. eigenvalues --   -1.04803  -0.81227  -0.77146  -0.73460  -0.65626
 Alpha  occ. eigenvalues --   -0.63574  -0.57992  -0.54422  -0.51175  -0.50522
 Alpha  occ. eigenvalues --   -0.47827  -0.46533  -0.43557  -0.42983  -0.40842
 Alpha  occ. eigenvalues --   -0.39586  -0.38223  -0.37272  -0.35800  -0.33838
 Alpha  occ. eigenvalues --   -0.28512  -0.27651  -0.27396  -0.25395
 Alpha virt. eigenvalues --   -0.02563   0.03057   0.04296   0.09829   0.10626
 Alpha virt. eigenvalues --    0.11918   0.12318   0.13028   0.15110   0.15788
 Alpha virt. eigenvalues --    0.16124   0.17171   0.17828   0.18775   0.21061

 Mulliken charges:
               1
     1  C   -0.394689
     2  C   -0.030295
     3  O   -0.243251
     4  C   -0.069244
     5  C   -0.279644
     6  C    0.152788
     7  O   -0.232738
     8  C    0.346979
     9  C   -0.493262
    10  H    0.127432
    11  H    0.138189
    12  H    0.129282
    13  H    0.097238
    14  H    0.101064
    15  H    0.107231
    16  H    0.134460
    17  H    0.129728
    18  H    0.074919
    19  H    0.203813
 Sum of Mulliken charges =   0.00000

 Dipole moment (field-independent basis, Debye):
    X=              2.6876    Y=              0.7268    Z=             -0.1175  Tot=              2.7866
 Quadrupole moment (field-independent basis, Debye-Ang):
   XX=            -65.9403   YY=            -49.0967   ZZ=            -52.6103
   XY=             -0.6137   XZ=              3.4190   YZ=             -1.7145

  Exact polarizability:  93.626   5.485  86.694  -3.484  -4.304  58.412
 Approx polarizability: 116.664  15.588 133.546  -8.587  -9.687  90.868

                      1                      2                      3
                      A                      A                      A
 Frequencies --     46.2157                49.9640                66.5716
 Red. masses --      4.7478                 2.7326                 3.2746
 Frc consts  --      0.0060                 0.0040                 0.0086
 IR Inten    --      1.6406                 4.9182                 1.6378

                      4                      5                      6
                      A                      A                      A
 Frequencies --    130.0028               138.3729               188.8182
 Red. masses --      2.9764                 3.2337                 3.2569
 Frc consts  --      0.0296                 0.0365                 0.0684
 IR Inten    --      3.0824                 3.7671                 2.6151

                      7                      8                      9
                      A                      A                      A
 Frequencies --    210.7376               260.8702               284.1520
 Red. masses --      1.3019                 2.3408                 2.7625
 Frc consts  --      0.0341                 0.0939                 0.1314
 IR Inten    --      0.3199                 1.9117                 1.0399

                     10                     11                     12
                      A                      A                      A
 Frequencies --    338.3424               441.6992               518.7787
 Red. masses --      5.4810                 3.5853                 2.9009
 Frc consts  --      0.3697                 0.4121                 0.4600
 IR Inten    --      2.2950                 4.2488                22.9164

                     13                     14                     15
                      A                      A                      A
 Frequencies --    562.3101               604.1038               632.2939
 Red. masses --      3.4347                 4.8844                 1.2305
 Frc consts  --      0.6399                 1.0502                 0.2898
 IR Inten    --      1.6544                 1.3908                44.7932

                     16                     17                     18
                      A                      A                      A
 Frequencies --    679.0783               787.7505               815.6770
 Red. masses --      1.2530                 1.3525                 2.4859
 Frc consts  --      0.3404                 0.4945                 0.9745
 IR Inten    --     34.2575                 0.0658                 5.2111

                     19                     20                     21
                      A                      A                      A
 Frequencies --    871.1609               911.6340              1005.9855
 Red. masses --      1.3485                 2.3306                 2.9178
 Frc consts  --      0.6030                 1.1412                 1.7398
 IR Inten    --      2.5032                20.9105                14.8374

                     22                     23                     24
                      A                      A                      A
 Frequencies --   1046.4713              1094.4651              1101.0019
 Red. masses --      2.4071                 2.6402                 2.0764
 Frc consts  --      1.5531                 1.8633                 1.4830
 IR Inten    --     12.9792                 0.4512                26.2033

                     25                     26                     27
                      A                      A                      A
 Frequencies --   1134.9820              1144.9775              1164.1286
 Red. masses --      3.2602                 2.8076                 2.4160
 Frc consts  --      2.4744                 2.1686                 1.9290
 IR Inten    --    189.7052                59.4783                24.5700

                     28                     29                     30
                      A                      A                      A
 Frequencies --   1228.4549              1276.3618              1305.3606
 Red. masses --      1.2713                 1.3949                 1.1240
 Frc consts  --      1.1304                 1.3388                 1.1284
 IR Inten    --      4.7730                 4.9795                 8.5835

                     31                     32                     33
                      A                      A                      A
 Frequencies --   1339.3358              1358.1466              1402.4449
 Red. masses --      1.3190                 1.2543                 1.2442
 Frc consts  --      1.3940                 1.3631                 1.4418
 IR Inten    --     18.1365                43.7887                 5.8871

                     34                     35                     36
                      A                      A                      A
 Frequencies --   1430.9764              1433.4985              1466.9983
 Red. masses --      1.2426                 1.3340                 1.0894
 Frc consts  --      1.4991                 1.6151                 1.3814
 IR Inten    --     11.0595                 7.6661                 4.0745

                     37                     38                     39
                      A                      A                      A
 Frequencies --   1481.9156              1494.8280              1526.0018
 Red. masses --      1.0443                 1.0503                 1.0846
 Frc consts  --      1.3512                 1.3828                 1.4881
 IR Inten    --      3.5311                 1.2654                 3.2585

                     40                     41                     42
                      A                      A                      A
 Frequencies --   1838.5615              2230.1280              2852.9925
 Red. masses --     10.1475                 5.8858                 1.0815
 Frc consts  --     20.2099                17.2470                 5.1865
 IR Inten    --    188.0372                 2.3263                99.8673

                     43                     44                     45
                      A                      A                      A
 Frequencies --   2956.4639              2970.0805              3007.9243
 Red. masses --      1.0799                 1.0589                 1.1005
 Frc consts  --      5.5614                 5.5038                 5.8663
 IR Inten    --     25.3511                46.1656                28.7342

                     46                     47                     48
                      A                      A                      A
 Frequencies --   3027.8442              3054.4712              3117.3700
 Red. masses --      1.0655                 1.0336                 1.0971
 Frc consts  --      5.7555                 5.6815                 6.2817
 IR Inten    --     10.5011                12.7999                12.1290

                     49                     50                     51
                      A                      A                      A
 Frequencies --   3136.2252              3138.4643              3501.3649
 Red. masses --      1.1032                 1.1028                 1.1628
 Frc consts  --      6.3930                 6.4002                 8.3988
 IR Inten    --     16.4868                14.3064                60.5741

 - Thermochemistry -
 -------------------
 Temperature   298.150 Kelvin.  Pressure   1.00000 Atm.
 Atom     1 has atomic number  6 and mass  12.00000

 Molecular mass:   126.06808 amu.
 Principal axes and moments of inertia in atomic units:
                           1         2         3
     Eigenvalues --   515.704002727.701643127.65477
           X            0.99992  -0.01253   0.00351
           Y            0.01255   0.99990  -0.00722
           Z           -0.00342   0.00726   0.99997
 This molecule is an asymmetric top.
 Rotational symmetry number  1.
 Warning -- assumption of classical behavior for rotation
           may cause significant error
 Rotational temperatures (Kelvin)      0.16795     0.03175     0.02769
 Rotational constants (GHZ):           3.49957     0.66163     0.57703
 Zero-point vibrational energy     405574.5 (Joules/Mol)
                                   96.93463 (Kcal/Mol)
 Warning -- explicit consideration of  14 degrees of freedom as
           vibrations may cause significant error
 Vibrational temperatures:     66.49    71.89    95.78   187.04   199.09
          (Kelvin)            271.67   303.20   375.33   408.83   486.80
                              635.51   746.41   809.04   869.17   909.73
                              977.04  1133.40  1173.58  1253.40  1311.64
                             1447.39  1505.64  1574.69  1584.09  1632.98
                             1647.37  1674.92  1767.47  1836.40  1878.12
                             1927.00  1954.07  2017.80  2058.85  2062.48
                             2110.68  2132.14  2150.72  2195.57  2645.28
                             3208.65  4104.81  4253.69  4273.28  4327.73
                             4356.39  4394.70  4485.19  4512.32  4515.54
                             5037.68

 Zero-point correction=                           0.154475 (Hartree/Particle)
 Thermal correction to Energy=                    0.165169
 Thermal correction to Enthalpy=                  0.166113
 Thermal correction to Gibbs Free Energy=         0.117047
 Sum of electronic and zero-point Energies=           -422.991250
 Sum of electronic and thermal Energies=              -422.980557
 Sum of electronic and thermal Enthalpies=            -422.979613
 Sum of electronic and thermal Free Energies=         -423.028678

                     E (Thermal)             CV                S
                      KCal/Mol        Cal/Mol-Kelvin    Cal/Mol-Kelvin
 Total                  103.645             36.696            103.267
 Electronic               0.000              0.000              0.000
 Translational            0.889              2.981             40.409
 Rotational               0.889              2.981             29.866
 Vibrational            101.867             30.734             32.993
 Vibration     1          0.595              1.979              4.973
 Vibration     2          0.595              1.978              4.819
 Vibration     3          0.598              1.970              4.252
 Vibration     4          0.612              1.923              2.946
 Vibration     5          0.614              1.915              2.826
 Vibration     6          0.633              1.855              2.239
 Vibration     7          0.643              1.824              2.037
 Vibration     8          0.669              1.744              1.656
 Vibration     9          0.683              1.703              1.509
 Vibration    10          0.719              1.599              1.220
 Vibration    11          0.801              1.379              0.821
 Vibration    12          0.874              1.208              0.613
 Vibration    13          0.918              1.113              0.519
 Vibration    14          0.963              1.023              0.443

 Normal termination of Gaussian 09 at Mon Jan 27 16:27:07 2020.
