 Gaussian 09, Revision D.01,
 Gaussian 09:  ES64L-G09RevD.01 24-Apr-2013

 -----------------------------
 # b3lyp 6-31G(2df,p) opt Freq
 -----------------------------

 -----
 titel
 -----
 Symbolic Z-matrix:
 Charge =  0 Multiplicity = 1

 SCF Done:  E(RB3LYP) =  -423.226541205     A.U. after   14 cycles
 Optimization completed.
    -- Stationary point found.
 Normal termination of Gaussian 09 at Tue Jan 28 08:11:49 2020.

 ----------------------------------------------------------------------
 #N Geom=AllCheck Guess=TCheck SCRF=Check GenChk RB3LYP/6-31G(2df,p) Fr
 eq
 ----------------------------------------------------------------------

 Structure from the checkpoint file:  "/scratch/puck/g09_9edbc848-799a-4688-8aef-383126829454/Gau-14505.chk"
 -----
 titel
 -----
 Charge =  0 Multiplicity = 1

                         Standard orientation:
 ---------------------------------------------------------------------
 Center     Atomic      Atomic             Coordinates (Angstroms)
 Number     Number       Type             X           Y           Z
 ---------------------------------------------------------------------
      1          6           0        2.577739   -1.079670   -0.144267
      2          6           0        1.573716    0.038086    0.062238
      3          8           0        1.944105    1.194041    0.210690
      4          6           0        0.133335   -0.278831    0.078824
      5          6           0       -0.454378   -1.471652   -0.083491
      6          6           0       -1.953905   -1.386569    0.029132
      7          6           0       -2.228053    0.136426   -0.027041
      8          6           0       -0.894901    0.814699    0.348664
      9          8           0       -0.709236    1.983867   -0.422395
     10          1           0        2.394660   -1.589968   -1.095626
     11          1           0        3.584713   -0.661418   -0.143133
     12          1           0        2.491343   -1.829446    0.649071
     13          1           0        0.064447   -2.410165   -0.251304
     14          1           0       -2.466995   -1.949548   -0.758499
     15          1           0       -2.283448   -1.829698    0.979793
     16          1           0       -2.457058    0.439742   -1.052837
     17          1           0       -3.059244    0.447015    0.608863
     18          1           0       -0.870613    1.063905    1.424146
     19          1           0        0.201925    2.261391   -0.251192
 ---------------------------------------------------------------------

 SCF Done:  E(RB3LYP) =  -423.226541205     A.U. after    1 cycles

 The electronic state is 1-A.
 Alpha  occ. eigenvalues --  -19.13593 -19.11676 -10.27662 -10.23011 -10.21042
 Alpha  occ. eigenvalues --  -10.19839 -10.19273 -10.19213 -10.18218  -1.04419
 Alpha  occ. eigenvalues --   -1.00273  -0.85090  -0.76230  -0.71710  -0.70120
 Alpha  occ. eigenvalues --   -0.59993  -0.57906  -0.53411  -0.50067  -0.48758
 Alpha  occ. eigenvalues --   -0.45377  -0.44557  -0.43509  -0.42173  -0.40318
 Alpha  occ. eigenvalues --   -0.38340  -0.37353  -0.36983  -0.35921  -0.35096
 Alpha  occ. eigenvalues --   -0.32160  -0.26774  -0.25833  -0.24864
 Alpha virt. eigenvalues --   -0.05828   0.05805   0.08952   0.10357   0.11412
 Alpha virt. eigenvalues --    0.13458   0.15023   0.15637   0.16470   0.16731
 Alpha virt. eigenvalues --    0.17017   0.17718   0.19716   0.20781   0.22922

 Mulliken charges:
               1
     1  C   -0.490265
     2  C    0.311751
     3  O   -0.334044
     4  C    0.217228
     5  C   -0.173246
     6  C   -0.265080
     7  C   -0.231820
     8  C    0.046525
     9  O   -0.443841
    10  H    0.143275
    11  H    0.144457
    12  H    0.141173
    13  H    0.104166
    14  H    0.116162
    15  H    0.120450
    16  H    0.123875
    17  H    0.104660
    18  H    0.071061
    19  H    0.293510
 Sum of Mulliken charges =   0.00000

 Dipole moment (field-independent basis, Debye):
    X=             -0.2776    Y=             -3.7405    Z=              0.4307  Tot=              3.7754
 Quadrupole moment (field-independent basis, Debye-Ang):
   XX=            -52.4759   YY=            -54.7834   ZZ=            -52.8840
   XY=             -1.0735   XZ=             -1.7947   YZ=              1.2893

  Exact polarizability:  95.902   8.421  87.548  -0.411   2.611  55.538
 Approx polarizability: 127.718  27.324 147.841   2.090   5.575  87.971

                      1                      2                      3
                      A                      A                      A
 Frequencies --     72.4695                98.8431               120.8207
 Red. masses --      3.0138                 2.5159                 1.1825
 Frc consts  --      0.0093                 0.0145                 0.0102
 IR Inten    --      1.7323                 1.3275                 0.3018

                      4                      5                      6
                      A                      A                      A
 Frequencies --    178.2540               198.5431               291.7258
 Red. masses --      3.0188                 4.2451                 2.9993
 Frc consts  --      0.0565                 0.0986                 0.1504
 IR Inten    --      0.2588                 5.7906                 1.8986

                      7                      8                      9
                      A                      A                      A
 Frequencies --    347.6869               418.0265               461.3305
 Red. masses --      3.2455                 3.6820                 4.1537
 Frc consts  --      0.2312                 0.3791                 0.5208
 IR Inten    --      7.0770                 7.3310                 9.1918

                     10                     11                     12
                      A                      A                      A
 Frequencies --    539.7824               545.6448               603.2042
 Red. masses --      2.4487                 1.1296                 3.7255
 Frc consts  --      0.4204                 0.1981                 0.7987
 IR Inten    --      4.6917               117.1720                 7.6165

                     13                     14                     15
                      A                      A                      A
 Frequencies --    636.7331               685.3499               805.6476
 Red. masses --      3.2182                 2.6091                 3.2930
 Frc consts  --      0.7687                 0.7220                 1.2593
 IR Inten    --     13.1430                 6.7011                 1.2356

                     16                     17                     18
                      A                      A                      A
 Frequencies --    833.2797               887.8815               913.1156
 Red. masses --      1.4986                 1.4145                 2.7169
 Frc consts  --      0.6131                 0.6570                 1.3347
 IR Inten    --     14.1670                 4.8425                 5.9482

                     19                     20                     21
                      A                      A                      A
 Frequencies --    933.7600               980.1446              1011.8527
 Red. masses --      2.6319                 1.8836                 2.2770
 Frc consts  --      1.3521                 1.0662                 1.3735
 IR Inten    --      8.7575                17.6614                 2.2498

                     22                     23                     24
                      A                      A                      A
 Frequencies --   1046.4050              1054.6247              1087.8143
 Red. masses --      1.8624                 2.0752                 2.1655
 Frc consts  --      1.2015                 1.3599                 1.5098
 IR Inten    --      3.1403                11.6463                38.6984

                     25                     26                     27
                      A                      A                      A
 Frequencies --   1118.2016              1164.9792              1220.4500
 Red. masses --      2.6956                 1.4814                 1.4344
 Frc consts  --      1.9859                 1.1846                 1.2588
 IR Inten    --     42.2538                 6.5235                 8.6671

                     28                     29                     30
                      A                      A                      A
 Frequencies --   1260.2639              1289.7226              1303.0081
 Red. masses --      1.3787                 1.2443                 1.3258
 Frc consts  --      1.2902                 1.2194                 1.3262
 IR Inten    --     25.2655                41.0989                 5.1707

                     31                     32                     33
                      A                      A                      A
 Frequencies --   1311.7613              1347.9647              1370.5999
 Red. masses --      1.8036                 1.6286                 1.4904
 Frc consts  --      1.8285                 1.7435                 1.6495
 IR Inten    --     60.0752                34.2630                24.4016

                     34                     35                     36
                      A                      A                      A
 Frequencies --   1391.9624              1431.0388              1466.5755
 Red. masses --      1.7137                 1.5096                 1.0560
 Frc consts  --      1.9563                 1.8215                 1.3382
 IR Inten    --     71.0603                62.8715                 7.0183

                     37                     38                     39
                      A                      A                      A
 Frequencies --   1475.1123              1476.3852              1494.1371
 Red. masses --      1.0831                 1.0475                 1.1001
 Frc consts  --      1.3886                 1.3453                 1.4469
 IR Inten    --      3.0631                 7.8129                 3.7386

                     40                     41                     42
                      A                      A                      A
 Frequencies --   1681.9938              1737.6871              2939.8956
 Red. masses --      7.4770                10.1528                 1.0815
 Frc consts  --     12.4631                18.0626                 5.5074
 IR Inten    --     48.6891               185.0056                56.7937

                     43                     44                     45
                      A                      A                      A
 Frequencies --   3011.3346              3043.0529              3056.5793
 Red. masses --      1.0689                 1.0366                 1.0868
 Frc consts  --      5.7107                 5.6558                 5.9822
 IR Inten    --     23.5550                 2.1623                13.5323

                     46                     47                     48
                      A                      A                      A
 Frequencies --   3070.3243              3106.1587              3120.4913
 Red. masses --      1.0659                 1.0987                 1.1046
 Frc consts  --      5.9200                 6.2459                 6.3375
 IR Inten    --     27.7607                 6.5774                24.6524

                     49                     50                     51
                      A                      A                      A
 Frequencies --   3154.7127              3186.2448              3739.9990
 Red. masses --      1.1018                 1.0931                 1.0650
 Frc consts  --      6.4608                 6.5382                 8.7769
 IR Inten    --      9.1374                12.5586                79.1290

 - Thermochemistry -
 -------------------
 Temperature   298.150 Kelvin.  Pressure   1.00000 Atm.
 Atom     1 has atomic number  6 and mass  12.00000

 Molecular mass:   126.06808 amu.
 Principal axes and moments of inertia in atomic units:
                           1         2         3
     Eigenvalues --   699.858361288.330771900.15934
           X            0.99958  -0.02818  -0.00742
           Y            0.02825   0.99955   0.00998
           Z            0.00714  -0.01018   0.99992
 This molecule is an asymmetric top.
 Rotational symmetry number  1.
 Warning -- assumption of classical behavior for rotation
           may cause significant error
 Rotational temperatures (Kelvin)      0.12376     0.06723     0.04558
 Rotational constants (GHZ):           2.57872     1.40084     0.94978
 Zero-point vibrational energy     417039.6 (Joules/Mol)
                                   99.67486 (Kcal/Mol)
 Warning -- explicit consideration of  12 degrees of freedom as
           vibrations may cause significant error
 Vibrational temperatures:    104.27   142.21   173.83   256.47   285.66
          (Kelvin)            419.73   500.24   601.45   663.75   776.63
                              785.06   867.88   916.12   986.06  1159.15
                             1198.90  1277.46  1313.77  1343.47  1410.21
                             1455.83  1505.54  1517.37  1565.12  1608.84
                             1676.14  1755.95  1813.24  1855.62  1874.74
                             1887.33  1939.42  1971.99  2002.72  2058.94
                             2110.07  2122.35  2124.19  2149.73  2420.01
                             2500.14  4229.85  4332.63  4378.27  4397.73
                             4417.51  4469.06  4489.69  4538.92  4584.29
                             5381.02

 Zero-point correction=                           0.158842 (Hartree/Particle)
 Thermal correction to Energy=                    0.167827
 Thermal correction to Enthalpy=                  0.168771
 Thermal correction to Gibbs Free Energy=         0.124751
 Sum of electronic and zero-point Energies=           -423.067699
 Sum of electronic and thermal Energies=              -423.058714
 Sum of electronic and thermal Enthalpies=            -423.057770
 Sum of electronic and thermal Free Energies=         -423.101791

                     E (Thermal)             CV                S
                      KCal/Mol        Cal/Mol-Kelvin    Cal/Mol-Kelvin
 Total                  105.313             33.244             92.649
 Electronic               0.000              0.000              0.000
 Translational            0.889              2.981             40.409
 Rotational               0.889              2.981             28.929
 Vibrational            103.536             27.283             23.312
 Vibration     1          0.599              1.967              4.085
 Vibration     2          0.604              1.950              3.477
 Vibration     3          0.609              1.932              3.087
 Vibration     4          0.629              1.869              2.347
 Vibration     5          0.637              1.842              2.147
 Vibration     6          0.687              1.689              1.464
 Vibration     7          0.725              1.580              1.177
 Vibration     8          0.781              1.431              0.899
 Vibration     9          0.819              1.336              0.762
 Vibration    10          0.895              1.162              0.566
 Vibration    11          0.901              1.149              0.553
 Vibration    12          0.962              1.025              0.444

 Optimization completed.
    -- Stationary point found.
 Normal termination of Gaussian 09 at Tue Jan 28 08:57:10 2020.
