 Gaussian 09, Revision D.01,
 Gaussian 09:  ES64L-G09RevD.01 24-Apr-2013

 -----------------------------
 # b3lyp 6-31G(2df,p) opt Freq
 -----------------------------

 -----
 titel
 -----
 Symbolic Z-matrix:
 Charge =  0 Multiplicity = 1

 SCF Done:  E(RB3LYP) =  -423.129090360     A.U. after   13 cycles
 Optimization completed.
    -- Stationary point found.
 Normal termination of Gaussian 09 at Tue Jan 28 02:52:29 2020.

 ----------------------------------------------------------------------
 #N Geom=AllCheck Guess=TCheck SCRF=Check GenChk RB3LYP/6-31G(2df,p) Fr
 eq
 ----------------------------------------------------------------------

 Structure from the checkpoint file:  "/scratch/puck/g09_d51a8f8f-55b3-4622-ae03-f2f6b558f4b9/Gau-105040.chk"
 -----
 titel
 -----
 Charge =  0 Multiplicity = 1

                         Standard orientation:
 ---------------------------------------------------------------------
 Center     Atomic      Atomic             Coordinates (Angstroms)
 Number     Number       Type             X           Y           Z
 ---------------------------------------------------------------------
      1          6           0       -3.069097   -0.112096    0.083896
      2          6           0       -1.655085    0.059027   -0.436045
      3          8           0       -0.861979   -1.146024   -0.234340
      4          6           0        0.014623   -0.482520    0.693109
      5          6           0       -0.688157    0.888177    0.432785
      6          6           0        0.571913    1.394827   -0.330102
      7          6           0        1.281150    0.083246    0.048915
      8          6           0        2.671844   -0.117171    0.465486
      9          8           0        2.168003   -0.645980   -0.768080
     10          1           0       -3.647421    0.806037   -0.068943
     11          1           0       -3.569837   -0.927416   -0.447151
     12          1           0       -3.067814   -0.349931    1.152381
     13          1           0       -1.667789    0.341546   -1.497432
     14          1           0        0.096894   -1.013639    1.645762
     15          1           0       -1.109275    1.523267    1.210146
     16          1           0        0.423191    1.538414   -1.403998
     17          1           0        1.034397    2.293820    0.084573
     18          1           0        3.384478    0.701364    0.368577
     19          1           0        2.911832   -0.858375    1.227181
 ---------------------------------------------------------------------

 SCF Done:  E(RB3LYP) =  -423.129090360     A.U. after    1 cycles

 The electronic state is 1-A.
 Alpha  occ. eigenvalues --  -19.15222 -19.13237 -10.24034 -10.23649 -10.23433
 Alpha  occ. eigenvalues --  -10.23423 -10.19684 -10.19086 -10.17843  -1.07536
 Alpha  occ. eigenvalues --   -1.03826  -0.82238  -0.75762  -0.67155  -0.65927
 Alpha  occ. eigenvalues --   -0.64834  -0.58249  -0.52355  -0.51274  -0.49291
 Alpha  occ. eigenvalues --   -0.47916  -0.46439  -0.43512  -0.41575  -0.39634
 Alpha  occ. eigenvalues --   -0.38859  -0.38134  -0.35539  -0.34396  -0.32221
 Alpha  occ. eigenvalues --   -0.29119  -0.29057  -0.27294  -0.24089
 Alpha virt. eigenvalues --    0.05605   0.08828   0.10033   0.10717   0.12011
 Alpha virt. eigenvalues --    0.12705   0.13387   0.14914   0.15168   0.16378
 Alpha virt. eigenvalues --    0.16545   0.17686   0.18977   0.20479   0.21009

 Mulliken charges:
               1
     1  C   -0.406563
     2  C    0.159754
     3  O   -0.304146
     4  C    0.003511
     5  C   -0.091257
     6  C   -0.362494
     7  C    0.466420
     8  C   -0.264781
     9  O   -0.256330
    10  H    0.114222
    11  H    0.130031
    12  H    0.119807
    13  H    0.079403
    14  H    0.075114
    15  H    0.078426
    16  H    0.117221
    17  H    0.109696
    18  H    0.114785
    19  H    0.117181
 Sum of Mulliken charges =   0.00000

 Dipole moment (field-independent basis, Debye):
    X=             -0.5372    Y=              2.4221    Z=              1.8736  Tot=              3.1089
 Quadrupole moment (field-independent basis, Debye-Ang):
   XX=            -50.4260   YY=            -54.9532   ZZ=            -52.6397
   XY=              0.6185   XZ=              4.0600   YZ=             -2.3508

  Exact polarizability:  96.009  -0.480  67.681   4.647  -3.507  64.731
 Approx polarizability: 117.233  -2.575 103.856   5.842  -0.993 102.272

                      1                      2                      3
                      A                      A                      A
 Frequencies --     54.5325               149.8874               222.6862
 Red. masses --      3.9344                 4.3154                 1.7243
 Frc consts  --      0.0069                 0.0571                 0.0504
 IR Inten    --      1.0539                 0.1961                 0.5278

                      4                      5                      6
                      A                      A                      A
 Frequencies --    243.9073               277.0722               340.1408
 Red. masses --      1.4227                 2.4381                 3.3954
 Frc consts  --      0.0499                 0.1103                 0.2315
 IR Inten    --      0.0678                 0.5732                 2.0670

                      7                      8                      9
                      A                      A                      A
 Frequencies --    361.2229               410.0634               541.4888
 Red. masses --      2.3511                 3.4531                 3.1762
 Frc consts  --      0.1807                 0.3421                 0.5487
 IR Inten    --      0.9796                 1.0958                 8.0654

                     10                     11                     12
                      A                      A                      A
 Frequencies --    577.2655               765.2823               779.7801
 Red. masses --      5.4932                 2.7097                 1.9908
 Frc consts  --      1.0785                 0.9350                 0.7132
 IR Inten    --     10.9329                 6.9410                 1.6590

                     13                     14                     15
                      A                      A                      A
 Frequencies --    821.7054               866.6617               875.1815
 Red. masses --      1.8437                 2.7711                 2.7993
 Frc consts  --      0.7334                 1.2263                 1.2633
 IR Inten    --      4.9977                31.7901                 6.7084

                     16                     17                     18
                      A                      A                      A
 Frequencies --    881.7708               912.3724               942.4928
 Red. masses --      1.6120                 3.2128                 3.8550
 Frc consts  --      0.7385                 1.5757                 2.0176
 IR Inten    --      3.8181                 5.5642                18.7831

                     19                     20                     21
                      A                      A                      A
 Frequencies --    988.2038               996.5204              1035.3948
 Red. masses --      2.8538                 1.6490                 4.4722
 Frc consts  --      1.6420                 0.9648                 2.8248
 IR Inten    --     16.6679                24.4162                78.3585

                     22                     23                     24
                      A                      A                      A
 Frequencies --   1076.0601              1099.1855              1115.3119
 Red. masses --      1.9782                 1.6970                 1.6265
 Frc consts  --      1.3495                 1.2080                 1.1921
 IR Inten    --     22.0775                 5.5771                 3.4999

                     25                     26                     27
                      A                      A                      A
 Frequencies --   1130.3835              1141.4077              1155.3341
 Red. masses --      1.4049                 2.2779                 1.5298
 Frc consts  --      1.0577                 1.7485                 1.2031
 IR Inten    --      2.2318                10.7068                 1.6573

                     28                     29                     30
                      A                      A                      A
 Frequencies --   1177.8781              1202.0904              1229.4299
 Red. masses --      1.5294                 1.7303                 2.0628
 Frc consts  --      1.2502                 1.4732                 1.8370
 IR Inten    --      3.8222                 0.6763                 0.8114

                     31                     32                     33
                      A                      A                      A
 Frequencies --   1251.0441              1271.2765              1288.7567
 Red. masses --      1.5192                 1.5601                 1.3376
 Frc consts  --      1.4009                 1.4855                 1.3089
 IR Inten    --      1.6629                 3.2113                13.2760

                     34                     35                     36
                      A                      A                      A
 Frequencies --   1326.5959              1385.7591              1404.9762
 Red. masses --      1.5303                 1.4113                 1.3355
 Frc consts  --      1.5868                 1.5968                 1.5532
 IR Inten    --      6.3590                 9.6799                10.2403

                     37                     38                     39
                      A                      A                      A
 Frequencies --   1432.9267              1475.6579              1483.9133
 Red. masses --      2.1857                 1.1321                 1.0584
 Frc consts  --      2.6442                 1.4525                 1.3731
 IR Inten    --     21.3449                 3.8620                 4.1322

                     40                     41                     42
                      A                      A                      A
 Frequencies --   1492.0982              1531.4740              3012.1571
 Red. masses --      1.0493                 1.5207                 1.0848
 Frc consts  --      1.3764                 2.1014                 5.7989
 IR Inten    --      2.5390                 6.0313                44.8483

                     43                     44                     45
                      A                      A                      A
 Frequencies --   3031.9243              3058.0686              3067.1822
 Red. masses --      1.0352                 1.0592                 1.0880
 Frc consts  --      5.6069                 5.8359                 6.0306
 IR Inten    --     16.8702                32.1370                30.8951

                     46                     47                     48
                      A                      A                      A
 Frequencies --   3076.9240              3104.5679              3109.9701
 Red. masses --      1.0500                 1.1009                 1.1066
 Frc consts  --      5.8567                 6.2515                 6.3060
 IR Inten    --     30.1377                23.9140                11.6589

                     49                     50                     51
                      A                      A                      A
 Frequencies --   3112.9126              3129.7526              3164.4961
 Red. masses --      1.1022                 1.0914                 1.1196
 Frc consts  --      6.2927                 6.2987                 6.6059
 IR Inten    --     17.1687                32.0570                22.3885

 - Thermochemistry -
 -------------------
 Temperature   298.150 Kelvin.  Pressure   1.00000 Atm.
 Atom     1 has atomic number  6 and mass  12.00000

 Molecular mass:   126.06808 amu.
 Principal axes and moments of inertia in atomic units:
                           1         2         3
     Eigenvalues --   406.612461588.782891738.35127
           X            0.99993   0.00626   0.00984
           Y           -0.00554   0.99736  -0.07235
           Z           -0.01027   0.07229   0.99733
 This molecule is an asymmetric top.
 Rotational symmetry number  1.
 Rotational temperatures (Kelvin)      0.21301     0.05452     0.04983
 Rotational constants (GHZ):           4.43848     1.13593     1.03819
 Zero-point vibrational energy     416199.6 (Joules/Mol)
                                   99.47410 (Kcal/Mol)
 Warning -- explicit consideration of  10 degrees of freedom as
           vibrations may cause significant error
 Vibrational temperatures:     78.46   215.65   320.40   350.93   398.64
          (Kelvin)            489.39   519.72   589.99   779.08   830.56
                             1101.07  1121.93  1182.25  1246.93  1259.19
                             1268.67  1312.70  1356.04  1421.80  1433.77
                             1489.70  1548.21  1581.48  1604.68  1626.37
                             1642.23  1662.27  1694.70  1729.54  1768.87
                             1799.97  1829.08  1854.23  1908.67  1993.80
                             2021.44  2061.66  2123.14  2135.02  2146.79
                             2203.45  4333.82  4362.26  4399.87  4412.99
                             4427.00  4466.78  4474.55  4478.78  4503.01
                             4553.00

 Zero-point correction=                           0.158522 (Hartree/Particle)
 Thermal correction to Energy=                    0.166592
 Thermal correction to Enthalpy=                  0.167536
 Thermal correction to Gibbs Free Energy=         0.125660
 Sum of electronic and zero-point Energies=           -422.970568
 Sum of electronic and thermal Energies=              -422.962498
 Sum of electronic and thermal Enthalpies=            -422.961554
 Sum of electronic and thermal Free Energies=         -423.003431

                     E (Thermal)             CV                S
                      KCal/Mol        Cal/Mol-Kelvin    Cal/Mol-Kelvin
 Total                  104.538             31.064             88.136
 Electronic               0.000              0.000              0.000
 Translational            0.889              2.981             40.409
 Rotational               0.889              2.981             28.509
 Vibrational            102.761             25.103             19.218
 Vibration     1          0.596              1.976              4.646
 Vibration     2          0.618              1.903              2.674
 Vibration     3          0.648              1.807              1.937
 Vibration     4          0.659              1.773              1.774
 Vibration     5          0.678              1.716              1.552
 Vibration     6          0.720              1.595              1.211
 Vibration     7          0.735              1.552              1.117
 Vibration     8          0.774              1.448              0.926
 Vibration     9          0.897              1.158              0.562
 Vibration    10          0.934              1.080              0.490

 Optimization completed.
    -- Stationary point found.
 Normal termination of Gaussian 09 at Tue Jan 28 03:44:58 2020.
