 Gaussian 09, Revision D.01,
 Gaussian 09:  ES64L-G09RevD.01 24-Apr-2013

 -----------------------------
 # b3lyp 6-31G(2df,p) opt Freq
 -----------------------------

 -----
 titel
 -----
 Symbolic Z-matrix:
 Charge =  0 Multiplicity = 1

 SCF Done:  E(RB3LYP) =  -423.066148836     A.U. after   12 cycles
 Optimization completed.
    -- Stationary point found.
 Normal termination of Gaussian 09 at Tue Jan 28 02:54:07 2020.

 ----------------------------------------------------------------------
 #N Geom=AllCheck Guess=TCheck SCRF=Check GenChk RB3LYP/6-31G(2df,p) Fr
 eq
 ----------------------------------------------------------------------

 Structure from the checkpoint file:  "/scratch/puck/g09_d1acfc9a-3b3d-4286-9f9c-b2ef0e672627/Gau-67035.chk"
 -----
 titel
 -----
 Charge =  0 Multiplicity = 1

                         Standard orientation:
 ---------------------------------------------------------------------
 Center     Atomic      Atomic             Coordinates (Angstroms)
 Number     Number       Type             X           Y           Z
 ---------------------------------------------------------------------
      1          8           0       -2.659492   -0.939929   -0.256264
      2          6           0       -1.554016   -0.334660    0.363783
      3          6           0       -1.467492    1.205836    0.054099
      4          6           0        0.050870    0.994136   -0.100497
      5          6           0        0.913795    0.601190    1.149610
      6          6           0        1.347388   -0.336167    0.004462
      7          8           0        2.382723   -1.254196   -0.008788
      8          6           0        1.354022    0.938968   -0.942766
      9          6           0       -0.167042   -0.505602   -0.388304
     10          1           0       -2.628874   -1.884599   -0.071488
     11          1           0       -1.534548   -0.547402    1.438607
     12          1           0       -1.969378    1.401430   -0.897241
     13          1           0       -1.820647    1.910100    0.811536
     14          1           0        1.644604    1.345695    1.477039
     15          1           0        0.402659    0.149339    2.001850
     16          1           0        2.241495   -1.878951    0.710902
     17          1           0        2.140742    1.673005   -0.742961
     18          1           0        1.235817    0.744484   -2.010963
     19          1           0       -0.362871   -0.742294   -1.439189
 ---------------------------------------------------------------------

 SCF Done:  E(RB3LYP) =  -423.066148836     A.U. after    1 cycles

 The electronic state is 1-A.
 Alpha  occ. eigenvalues --  -19.14387 -19.14103 -10.25656 -10.24238 -10.20181
 Alpha  occ. eigenvalues --  -10.19275 -10.19043 -10.18203 -10.17376  -1.03105
 Alpha  occ. eigenvalues --   -1.02464  -0.91810  -0.77768  -0.67274  -0.65553
 Alpha  occ. eigenvalues --   -0.61026  -0.58853  -0.52785  -0.52334  -0.50015
 Alpha  occ. eigenvalues --   -0.45539  -0.45150  -0.41614  -0.41141  -0.39330
 Alpha  occ. eigenvalues --   -0.37604  -0.36022  -0.33852  -0.32841  -0.30897
 Alpha  occ. eigenvalues --   -0.30508  -0.27606  -0.25812  -0.23261
 Alpha virt. eigenvalues --    0.07235   0.08235   0.08601   0.10622   0.11625
 Alpha virt. eigenvalues --    0.12550   0.13641   0.15332   0.15847   0.16424
 Alpha virt. eigenvalues --    0.17199   0.19217   0.20246   0.21594   0.22508

 Mulliken charges:
               1
     1  O   -0.428162
     2  C    0.078495
     3  C   -0.340255
     4  C    0.278580
     5  C   -0.319659
     6  C    0.369777
     7  O   -0.464315
     8  C   -0.338879
     9  C   -0.147005
    10  H    0.282339
    11  H    0.073740
    12  H    0.122710
    13  H    0.101680
    14  H    0.090666
    15  H    0.087492
    16  H    0.278555
    17  H    0.095188
    18  H    0.102339
    19  H    0.076714
 Sum of Mulliken charges =   0.00000

 Dipole moment (field-independent basis, Debye):
    X=             -0.2869    Y=             -0.9351    Z=              1.6053  Tot=              1.8798
 Quadrupole moment (field-independent basis, Debye-Ang):
   XX=            -60.6907   YY=            -48.1745   ZZ=            -51.6506
   XY=              2.4160   XZ=              0.6646   YZ=             -3.0411

  Exact polarizability:  88.053   2.123  72.423  -0.382  -0.337  70.386
 Approx polarizability: 123.131   1.435 111.066  -0.161   0.283 108.737

                      1                      2                      3
                      A                      A                      A
 Frequencies --    173.1106               203.6652               236.1622
 Red. masses --      2.6043                 3.1414                 1.3613
 Frc consts  --      0.0460                 0.0768                 0.0447
 IR Inten    --      1.7099                 6.4597                64.1429

                      4                      5                      6
                      A                      A                      A
 Frequencies --    268.8362               294.3058               386.6404
 Red. masses --      2.6087                 1.2567                 2.9114
 Frc consts  --      0.1111                 0.0641                 0.2564
 IR Inten    --     26.1892               104.7443                 9.3068

                      7                      8                      9
                      A                      A                      A
 Frequencies --    394.3874               425.2989               507.4782
 Red. masses --      3.5529                 3.4201                 2.7485
 Frc consts  --      0.3256                 0.3645                 0.4170
 IR Inten    --      2.0629                11.7480                14.2331

                     10                     11                     12
                      A                      A                      A
 Frequencies --    544.3581               582.0609               620.2796
 Red. masses --      2.7806                 2.5012                 3.9929
 Frc consts  --      0.4855                 0.4993                 0.9051
 IR Inten    --      6.6934                 0.0992                 4.6272

                     13                     14                     15
                      A                      A                      A
 Frequencies --    685.8855               771.0529               798.5852
 Red. masses --      2.7796                 3.0512                 2.5816
 Frc consts  --      0.7704                 1.0688                 0.9700
 IR Inten    --      0.6249                 6.3494                 2.5540

                     16                     17                     18
                      A                      A                      A
 Frequencies --    879.4257               888.1932               942.2111
 Red. masses --      3.0125                 2.1391                 3.5524
 Frc consts  --      1.3727                 0.9943                 1.8581
 IR Inten    --      4.0234                 5.2196                11.7842

                     19                     20                     21
                      A                      A                      A
 Frequencies --    958.5113               996.6780              1008.2267
 Red. masses --      1.9925                 3.0438                 1.3013
 Frc consts  --      1.0786                 1.7814                 0.7794
 IR Inten    --     12.5980                33.0934                11.7135

                     22                     23                     24
                      A                      A                      A
 Frequencies --   1017.7024              1066.9125              1076.9179
 Red. masses --      1.5502                 1.8237                 1.9839
 Frc consts  --      0.9460                 1.2231                 1.3556
 IR Inten    --      4.3969                84.0918                 2.0588

                     25                     26                     27
                      A                      A                      A
 Frequencies --   1086.0458              1127.7459              1142.3541
 Red. masses --      1.5354                 1.9591                 1.3370
 Frc consts  --      1.0670                 1.4680                 1.0280
 IR Inten    --     13.4449                43.3732                14.0291

                     28                     29                     30
                      A                      A                      A
 Frequencies --   1149.9852              1168.2709              1201.2604
 Red. masses --      1.7504                 2.0657                 1.8950
 Frc consts  --      1.3638                 1.6611                 1.6112
 IR Inten    --     20.3567                 9.5926                47.0115

                     31                     32                     33
                      A                      A                      A
 Frequencies --   1228.8838              1232.8693              1242.6307
 Red. masses --      1.4247                 1.2461                 1.7665
 Frc consts  --      1.2676                 1.1159                 1.6071
 IR Inten    --     25.9249                28.0291               170.4824

                     34                     35                     36
                      A                      A                      A
 Frequencies --   1261.5822              1289.5637              1342.9730
 Red. masses --      2.1109                 1.6316                 1.4707
 Frc consts  --      1.9794                 1.5987                 1.5628
 IR Inten    --     24.5538                42.0434                36.9727

                     37                     38                     39
                      A                      A                      A
 Frequencies --   1347.6793              1422.9979              1476.7531
 Red. masses --      2.0387                 1.3772                 1.1242
 Frc consts  --      2.1816                 1.6431                 1.4445
 IR Inten    --     52.8626                 7.9091                 3.2484

                     40                     41                     42
                      A                      A                      A
 Frequencies --   1495.6742              1540.0330              3023.6476
 Red. masses --      1.1029                 1.2045                 1.0844
 Frc consts  --      1.4536                 1.6832                 5.8410
 IR Inten    --      1.2599                 9.0824                23.2617

                     43                     44                     45
                      A                      A                      A
 Frequencies --   3046.5697              3056.7881              3058.2422
 Red. masses --      1.0561                 1.0698                 1.0610
 Frc consts  --      5.7755                 5.8894                 5.8467
 IR Inten    --     54.9759                47.5207                66.5375

                     46                     47                     48
                      A                      A                      A
 Frequencies --   3063.3548              3120.5608              3123.4959
 Red. masses --      1.0681                 1.1088                 1.1088
 Frc consts  --      5.9056                 6.3617                 6.3739
 IR Inten    --      9.1541                 9.3224                43.5906

                     49                     50                     51
                      A                      A                      A
 Frequencies --   3126.0236              3806.6108              3809.1682
 Red. masses --      1.1092                 1.0657                 1.0659
 Frc consts  --      6.3865                 9.0980                 9.1124
 IR Inten    --     38.7518                22.9894                26.4227

 - Thermochemistry -
 -------------------
 Temperature   298.150 Kelvin.  Pressure   1.00000 Atm.
 Atom     1 has atomic number  8 and mass  15.99491

 Molecular mass:   126.06808 amu.
 Principal axes and moments of inertia in atomic units:
                           1         2         3
     Eigenvalues --   557.984861399.559451613.78767
           X            0.99995   0.00997  -0.00168
           Y           -0.01000   0.99980  -0.01756
           Z            0.00150   0.01758   0.99984
 This molecule is an asymmetric top.
 Rotational symmetry number  1.
 Warning -- assumption of classical behavior for rotation
           may cause significant error
 Rotational temperatures (Kelvin)      0.15523     0.06189     0.05367
 Rotational constants (GHZ):           3.23439     1.28951     1.11833
 Zero-point vibrational energy     417010.1 (Joules/Mol)
                                   99.66781 (Kcal/Mol)
 Warning -- explicit consideration of  12 degrees of freedom as
           vibrations may cause significant error
 Vibrational temperatures:    249.07   293.03   339.78   386.79   423.44
          (Kelvin)            556.29   567.43   611.91   730.15   783.21
                              837.45   892.44   986.84  1109.37  1148.98
                             1265.30  1277.91  1355.63  1379.08  1434.00
                             1450.61  1464.24  1535.05  1549.44  1562.58
                             1622.57  1643.59  1654.57  1680.88  1728.34
                             1768.09  1773.82  1787.87  1815.13  1855.39
                             1932.24  1939.01  2047.37  2124.72  2151.94
                             2215.76  4350.35  4383.33  4398.03  4400.12
                             4407.48  4489.79  4494.01  4497.65  5476.86
                             5480.54

 Zero-point correction=                           0.158831 (Hartree/Particle)
 Thermal correction to Energy=                    0.166757
 Thermal correction to Enthalpy=                  0.167701
 Thermal correction to Gibbs Free Energy=         0.127000
 Sum of electronic and zero-point Energies=           -422.907318
 Sum of electronic and thermal Energies=              -422.899392
 Sum of electronic and thermal Enthalpies=            -422.898448
 Sum of electronic and thermal Free Energies=         -422.939149

                     E (Thermal)             CV                S
                      KCal/Mol        Cal/Mol-Kelvin    Cal/Mol-Kelvin
 Total                  104.641             32.467             85.662
 Electronic               0.000              0.000              0.000
 Translational            0.889              2.981             40.409
 Rotational               0.889              2.981             28.623
 Vibrational            102.864             26.505             16.630
 Vibration     1          0.627              1.876              2.401
 Vibration     2          0.639              1.835              2.100
 Vibration     3          0.655              1.785              1.832
 Vibration     4          0.673              1.730              1.604
 Vibration     5          0.689              1.684              1.449
 Vibration     6          0.755              1.499              1.013
 Vibration     7          0.761              1.482              0.984
 Vibration     8          0.787              1.415              0.874
 Vibration     9          0.863              1.233              0.640
 Vibration    10          0.900              1.152              0.556
 Vibration    11          0.939              1.070              0.482
 Vibration    12          0.980              0.989              0.416

 Optimization completed.
    -- Stationary point found.
 Normal termination of Gaussian 09 at Tue Jan 28 03:41:29 2020.
