 Gaussian 09, Revision D.01,
 Gaussian 09:  ES64L-G09RevD.01 24-Apr-2013

 -----------------------------
 # b3lyp 6-31G(2df,p) opt Freq
 -----------------------------

 -----
 titel
 -----
 Symbolic Z-matrix:
 Charge =  0 Multiplicity = 1

 SCF Done:  E(RB3LYP) =  -423.148954789     A.U. after   14 cycles
 Optimization completed.
    -- Stationary point found.
 Normal termination of Gaussian 09 at Tue Jan 28 14:09:34 2020.

 ----------------------------------------------------------------------
 #N Geom=AllCheck Guess=TCheck SCRF=Check GenChk RB3LYP/6-31G(2df,p) Fr
 eq
 ----------------------------------------------------------------------

 Structure from the checkpoint file:  "/scratch/puck/g09_211d3742-8c62-454d-99d2-ce4665cc619f/Gau-3918.chk"
 -----
 titel
 -----
 Charge =  0 Multiplicity = 1

                         Standard orientation:
 ---------------------------------------------------------------------
 Center     Atomic      Atomic             Coordinates (Angstroms)
 Number     Number       Type             X           Y           Z
 ---------------------------------------------------------------------
      1          8           0        3.402296    0.107803   -0.035037
      2          6           0        2.045604    0.224836    0.356966
      3          6           0        1.101203   -0.578591   -0.547214
      4          6           0       -0.345897   -0.406097   -0.174113
      5          6           0       -1.620253   -0.973470   -0.901053
      6          6           0       -2.231849   -0.175921    0.299762
      7          6           0       -1.086453   -0.805419    1.160745
      8          6           0       -1.182115    0.884460   -0.058982
      9          8           0       -1.059587    2.064871   -0.180941
     10          1           0        3.667527   -0.809443    0.086725
     11          1           0        1.904534   -0.073571    1.408102
     12          1           0        1.801258    1.289108    0.286717
     13          1           0        1.253698   -0.253632   -1.583142
     14          1           0        1.371762   -1.643419   -0.507130
     15          1           0       -1.828170   -0.613648   -1.910816
     16          1           0       -1.732971   -2.058031   -0.823624
     17          1           0       -3.280199   -0.063528    0.563705
     18          1           0       -0.800481   -0.289797    2.079513
     19          1           0       -1.180070   -1.884207    1.311108
 ---------------------------------------------------------------------

 SCF Done:  E(RB3LYP) =  -423.148954789     A.U. after    1 cycles

 The electronic state is 1-A.
 Alpha  occ. eigenvalues --  -19.13646 -19.13560 -10.27302 -10.22881 -10.21902
 Alpha  occ. eigenvalues --  -10.21407 -10.21186 -10.21122 -10.19133  -1.04891
 Alpha  occ. eigenvalues --   -1.01685  -0.92619  -0.76987  -0.68369  -0.65384
 Alpha  occ. eigenvalues --   -0.63701  -0.60567  -0.50751  -0.50542  -0.49085
 Alpha  occ. eigenvalues --   -0.45938  -0.45359  -0.44869  -0.42131  -0.40471
 Alpha  occ. eigenvalues --   -0.38441  -0.36893  -0.35323  -0.34735  -0.33894
 Alpha  occ. eigenvalues --   -0.32620  -0.31848  -0.26732  -0.24000
 Alpha virt. eigenvalues --    0.01085   0.07248   0.08867   0.10604   0.11946
 Alpha virt. eigenvalues --    0.12818   0.13398   0.14031   0.14507   0.15244
 Alpha virt. eigenvalues --    0.16030   0.17646   0.18884   0.20265   0.20688

 Mulliken charges:
               1
     1  O   -0.413486
     2  C   -0.068099
     3  C   -0.361840
     4  C    0.203708
     5  C   -0.279789
     6  C   -0.172217
     7  C   -0.266976
     8  C    0.437893
     9  O   -0.336372
    10  H    0.280416
    11  H    0.087647
    12  H    0.140365
    13  H    0.120947
    14  H    0.091088
    15  H    0.113868
    16  H    0.106130
    17  H    0.096734
    18  H    0.114186
    19  H    0.105797
 Sum of Mulliken charges =   0.00000

 Dipole moment (field-independent basis, Debye):
    X=             -0.8374    Y=             -4.0015    Z=              0.6371  Tot=              4.1375
 Quadrupole moment (field-independent basis, Debye-Ang):
   XX=            -55.4449   YY=            -57.5786   ZZ=            -51.7276
   XY=             -2.0285   XZ=              1.1097   YZ=              0.4400

  Exact polarizability:  84.346   0.278  76.127  -0.695  -0.280  67.737
 Approx polarizability: 110.295   0.657 124.790  -1.859  -2.579 103.348

                      1                      2                      3
                      A                      A                      A
 Frequencies --     58.2459                94.9222               121.4339
 Red. masses --      2.9697                 2.5343                 4.2281
 Frc consts  --      0.0059                 0.0135                 0.0367
 IR Inten    --      1.3480                 1.8923                 0.5936

                      4                      5                      6
                      A                      A                      A
 Frequencies --    191.8097               239.6114               307.0161
 Red. masses --      4.0412                 3.0993                 1.1597
 Frc consts  --      0.0876                 0.1048                 0.0644
 IR Inten    --      1.6613                 7.1378                82.1283

                      7                      8                      9
                      A                      A                      A
 Frequencies --    352.9774               363.4537               496.1119
 Red. masses --      4.0892                 3.6181                 3.1743
 Frc consts  --      0.3002                 0.2816                 0.4603
 IR Inten    --     28.3143                 0.2113                 1.5940

                     10                     11                     12
                      A                      A                      A
 Frequencies --    519.4449               697.1326               710.3784
 Red. masses --      2.1248                 3.2616                 2.8913
 Frc consts  --      0.3378                 0.9339                 0.8596
 IR Inten    --      1.0222                 5.4330                 3.3886

                     13                     14                     15
                      A                      A                      A
 Frequencies --    776.3139               793.7636               799.8035
 Red. masses --      3.7699                 1.8273                 2.4886
 Frc consts  --      1.3386                 0.6783                 0.9379
 IR Inten    --     13.1379                 0.9723                 8.0545

                     16                     17                     18
                      A                      A                      A
 Frequencies --    821.0498               910.5079               935.1735
 Red. masses --      3.2042                 2.3324                 2.8341
 Frc consts  --      1.2726                 1.1392                 1.4603
 IR Inten    --      2.9057                 0.7255                 0.6891

                     19                     20                     21
                      A                      A                      A
 Frequencies --    980.2544              1008.4217              1024.4976
 Red. masses --      1.7845                 1.0510                 2.4428
 Frc consts  --      1.0103                 0.6297                 1.5106
 IR Inten    --     11.0817                 0.4908                45.5614

                     22                     23                     24
                      A                      A                      A
 Frequencies --   1036.7010              1052.5765              1079.3944
 Red. masses --      1.6075                 1.6830                 2.8804
 Frc consts  --      1.0179                 1.0986                 1.9773
 IR Inten    --      2.6172                25.3266                75.0020

                     25                     26                     27
                      A                      A                      A
 Frequencies --   1083.7122              1123.2605              1136.1627
 Red. masses --      1.7482                 1.2809                 1.7898
 Frc consts  --      1.2097                 0.9522                 1.3613
 IR Inten    --     19.3783                 6.6036                 0.1481

                     28                     29                     30
                      A                      A                      A
 Frequencies --   1183.0071              1198.0334              1219.5368
 Red. masses --      1.5071                 1.4864                 1.7207
 Frc consts  --      1.2427                 1.2570                 1.5078
 IR Inten    --      5.9975                 0.6389                 6.7157

                     31                     32                     33
                      A                      A                      A
 Frequencies --   1230.9418              1295.8095              1321.2475
 Red. masses --      1.7677                 1.4053                 1.1961
 Frc consts  --      1.5781                 1.3902                 1.2302
 IR Inten    --      3.0891                 0.5808                11.0333

                     34                     35                     36
                      A                      A                      A
 Frequencies --   1359.6090              1401.9911              1423.6852
 Red. masses --      3.2792                 1.3994                 1.2944
 Frc consts  --      3.5714                 1.6207                 1.5458
 IR Inten    --      5.1181                 8.3923                35.5784

                     37                     38                     39
                      A                      A                      A
 Frequencies --   1481.6478              1495.3528              1515.3627
 Red. masses --      1.0892                 1.0859                 1.0880
 Frc consts  --      1.4088                 1.4307                 1.4720
 IR Inten    --      1.4664                 0.1137                 0.6699

                     40                     41                     42
                      A                      A                      A
 Frequencies --   1532.2210              1908.2056              2977.3666
 Red. masses --      1.1470                12.1506                 1.0710
 Frc consts  --      1.5865                26.0675                 5.5939
 IR Inten    --      0.3357               332.1479                46.9370

                     43                     44                     45
                      A                      A                      A
 Frequencies --   3007.0754              3058.3985              3058.7422
 Red. masses --      1.0655                 1.0540                 1.0540
 Frc consts  --      5.6769                 5.8089                 5.8099
 IR Inten    --     29.5219                28.7218                25.7654

                     46                     47                     48
                      A                      A                      A
 Frequencies --   3062.4802              3092.2838              3130.4798
 Red. masses --      1.0921                 1.0950                 1.1125
 Frc consts  --      6.0346                 6.1693                 6.4237
 IR Inten    --     13.1105                23.0349                22.0225

                     49                     50                     51
                      A                      A                      A
 Frequencies --   3131.4055              3157.5556              3814.8648
 Red. masses --      1.1111                 1.0940                 1.0661
 Frc consts  --      6.4193                 6.4262                 9.1417
 IR Inten    --     20.8923                28.1621                16.5914

 - Thermochemistry -
 -------------------
 Temperature   298.150 Kelvin.  Pressure   1.00000 Atm.
 Atom     1 has atomic number  8 and mass  15.99491

 Molecular mass:   126.06808 amu.
 Principal axes and moments of inertia in atomic units:
                           1         2         3
     Eigenvalues --   591.644671726.574011970.52773
           X            0.99992   0.01221   0.00198
           Y           -0.01224   0.99979   0.01669
           Z           -0.00177  -0.01671   0.99986
 This molecule is an asymmetric top.
 Rotational symmetry number  1.
 Warning -- assumption of classical behavior for rotation
           may cause significant error
 Rotational temperatures (Kelvin)      0.14639     0.05017     0.04395
 Rotational constants (GHZ):           3.05038     1.04527     0.91587
 Zero-point vibrational energy     417325.9 (Joules/Mol)
                                   99.74327 (Kcal/Mol)
 Warning -- explicit consideration of  10 degrees of freedom as
           vibrations may cause significant error
 Vibrational temperatures:     83.80   136.57   174.72   275.97   344.75
          (Kelvin)            441.73   507.86   522.93   713.79   747.36
                             1003.02  1022.07  1116.94  1142.05  1150.74
                             1181.31  1310.02  1345.50  1410.37  1450.89
                             1474.02  1491.58  1514.42  1553.01  1559.22
                             1616.12  1634.68  1702.08  1723.70  1754.64
                             1771.05  1864.38  1900.98  1956.17  2017.15
                             2048.36  2131.76  2151.48  2180.27  2204.52
                             2745.48  4283.76  4326.51  4400.35  4400.84
                             4406.22  4449.10  4504.06  4505.39  4543.01
                             5488.73

 Zero-point correction=                           0.158951 (Hartree/Particle)
 Thermal correction to Energy=                    0.167705
 Thermal correction to Enthalpy=                  0.168649
 Thermal correction to Gibbs Free Energy=         0.124808
 Sum of electronic and zero-point Energies=           -422.990004
 Sum of electronic and thermal Energies=              -422.981250
 Sum of electronic and thermal Enthalpies=            -422.980305
 Sum of electronic and thermal Free Energies=         -423.024147

                     E (Thermal)             CV                S
                      KCal/Mol        Cal/Mol-Kelvin    Cal/Mol-Kelvin
 Total                  105.237             32.505             92.272
 Electronic               0.000              0.000              0.000
 Translational            0.889              2.981             40.409
 Rotational               0.889              2.981             29.089
 Vibrational            103.459             26.544             22.774
 Vibration     1          0.596              1.974              4.516
 Vibration     2          0.603              1.953              3.556
 Vibration     3          0.609              1.931              3.077
 Vibration     4          0.634              1.851              2.210
 Vibration     5          0.657              1.780              1.806
 Vibration     6          0.697              1.660              1.378
 Vibration     7          0.729              1.569              1.153
 Vibration     8          0.737              1.548              1.107
 Vibration     9          0.852              1.259              0.668
 Vibration    10          0.874              1.207              0.611

 Normal termination of Gaussian 09 at Tue Jan 28 14:58:34 2020.
