 Gaussian 09, Revision D.01,
 Gaussian 09:  ES64L-G09RevD.01 24-Apr-2013

 -----------------------------
 # b3lyp 6-31G(2df,p) opt Freq
 -----------------------------

 -----
 titel
 -----
 Symbolic Z-matrix:
 Charge =  0 Multiplicity = 1

 SCF Done:  E(RB3LYP) =  -423.205165406     A.U. after   13 cycles
 Optimization completed.
    -- Stationary point found.
 Normal termination of Gaussian 09 at Tue Jan 28 03:16:30 2020.

 ----------------------------------------------------------------------
 #N Geom=AllCheck Guess=TCheck SCRF=Check GenChk RB3LYP/6-31G(2df,p) Fr
 eq
 ----------------------------------------------------------------------

 Structure from the checkpoint file:  "/scratch/puck/g09_3deb2d2f-7e5e-4d77-9157-21bdf8ff60ae/Gau-89113.chk"
 -----
 titel
 -----
 Charge =  0 Multiplicity = 1

                         Standard orientation:
 ---------------------------------------------------------------------
 Center     Atomic      Atomic             Coordinates (Angstroms)
 Number     Number       Type             X           Y           Z
 ---------------------------------------------------------------------
      1          6           0       -2.598860    0.310081   -0.274760
      2          6           0       -1.104771    0.190703   -0.533054
      3          8           0       -0.728516   -1.195865   -0.454308
      4          6           0        0.415389   -1.226555    0.387528
      5          8           0        0.159493   -0.244797    1.370952
      6          6           0       -0.211470    0.868860    0.552405
      7          6           0        1.062131    1.502793   -0.025521
      8          6           0        1.959022    0.421339   -0.581888
      9          6           0        1.666644   -0.864114   -0.394274
     10          1           0       -2.934705    1.343946   -0.408008
     11          1           0       -3.155600   -0.323892   -0.970308
     12          1           0       -2.832875   -0.009780    0.745030
     13          1           0       -0.856407    0.575743   -1.530632
     14          1           0        0.470588   -2.206133    0.867133
     15          1           0       -0.772050    1.571118    1.172960
     16          1           0        0.799426    2.225815   -0.808674
     17          1           0        1.589158    2.071244    0.753098
     18          1           0        2.846017    0.725206   -1.131163
     19          1           0        2.270122   -1.666615   -0.805199
 ---------------------------------------------------------------------

 SCF Done:  E(RB3LYP) =  -423.205165406     A.U. after    1 cycles

 The electronic state is 1-A.
 Alpha  occ. eigenvalues --  -19.14259 -19.13669 -10.27448 -10.23572 -10.23251
 Alpha  occ. eigenvalues --  -10.19194 -10.19028 -10.18033 -10.17544  -1.08607
 Alpha  occ. eigenvalues --   -0.98652  -0.80517  -0.79035  -0.72009  -0.64718
 Alpha  occ. eigenvalues --   -0.63705  -0.59031  -0.53912  -0.52355  -0.47655
 Alpha  occ. eigenvalues --   -0.46345  -0.44836  -0.42219  -0.41641  -0.41156
 Alpha  occ. eigenvalues --   -0.39419  -0.37781  -0.37020  -0.35335  -0.33062
 Alpha  occ. eigenvalues --   -0.31527  -0.27835  -0.25576  -0.24122
 Alpha virt. eigenvalues --    0.00826   0.09071   0.11355   0.11921   0.12632
 Alpha virt. eigenvalues --    0.13224   0.15093   0.15755   0.16725   0.17217
 Alpha virt. eigenvalues --    0.17688   0.18854   0.19173   0.21212   0.22308

 Mulliken charges:
               1
     1  C   -0.406413
     2  C    0.131078
     3  O   -0.276683
     4  C    0.134191
     5  O   -0.248121
     6  C    0.030699
     7  C   -0.273683
     8  C   -0.075098
     9  C   -0.054076
    10  H    0.110269
    11  H    0.127273
    12  H    0.130357
    13  H    0.078626
    14  H    0.091110
    15  H    0.084677
    16  H    0.109109
    17  H    0.115653
    18  H    0.095705
    19  H    0.095328
 Sum of Mulliken charges =   0.00000

 Dipole moment (field-independent basis, Debye):
    X=              0.4613    Y=              1.4980    Z=             -0.7687  Tot=              1.7458
 Quadrupole moment (field-independent basis, Debye-Ang):
   XX=            -51.2042   YY=            -50.2069   ZZ=            -55.9421
   XY=             -2.1870   XZ=             -1.2809   YZ=             -0.9719

  Exact polarizability:  81.544  -0.781  82.075  -3.075  -1.479  60.183
 Approx polarizability: 103.906   2.266 132.210  -2.614  -3.738  95.466

                      1                      2                      3
                      A                      A                      A
 Frequencies --    100.3093               239.5947               255.4237
 Red. masses --      3.4039                 1.0780                 2.3199
 Frc consts  --      0.0202                 0.0365                 0.0892
 IR Inten    --      1.0252                 0.1094                 0.9454

                      4                      5                      6
                      A                      A                      A
 Frequencies --    289.5127               309.3132               417.4180
 Red. masses --      2.4203                 3.8762                 2.5793
 Frc consts  --      0.1195                 0.2185                 0.2648
 IR Inten    --      0.6610                 0.5320                 1.7040

                      7                      8                      9
                      A                      A                      A
 Frequencies --    487.1104               516.0262               594.1231
 Red. masses --      7.1946                 2.3936                 4.7182
 Frc consts  --      1.0058                 0.3755                 0.9812
 IR Inten    --      9.0408                 3.0401                 4.4747

                     10                     11                     12
                      A                      A                      A
 Frequencies --    700.5720               709.1242               789.1812
 Red. masses --      1.7979                 5.0383                 3.1805
 Frc consts  --      0.5199                 1.4927                 1.1671
 IR Inten    --     13.2051                 4.8814                 3.7414

                     13                     14                     15
                      A                      A                      A
 Frequencies --    800.5488               868.9109               879.2137
 Red. masses --      3.0654                 2.7433                 4.0178
 Frc consts  --      1.1575                 1.2203                 1.8299
 IR Inten    --      1.7440                14.5717                 4.8116

                     16                     17                     18
                      A                      A                      A
 Frequencies --    902.1071               937.7801               966.9126
 Red. masses --      2.6293                 2.4727                 3.0666
 Frc consts  --      1.2607                 1.2812                 1.6892
 IR Inten    --     12.8512                40.0171                55.7581

                     19                     20                     21
                      A                      A                      A
 Frequencies --    978.6476               989.9479              1025.6939
 Red. masses --      1.9840                 1.4627                 2.3293
 Frc consts  --      1.1195                 0.8446                 1.4438
 IR Inten    --     46.5949                 4.8816                22.2412

                     22                     23                     24
                      A                      A                      A
 Frequencies --   1048.4951              1077.3693              1091.0126
 Red. masses --      2.9986                 2.5676                 1.7780
 Frc consts  --      1.9422                 1.7559                 1.2469
 IR Inten    --     58.0175                 4.4209                18.7365

                     25                     26                     27
                      A                      A                      A
 Frequencies --   1130.2714              1134.6799              1192.1585
 Red. masses --      2.7895                 1.7853                 1.3571
 Frc consts  --      2.0996                 1.3542                 1.1364
 IR Inten    --     34.7540                10.9756                19.6337

                     28                     29                     30
                      A                      A                      A
 Frequencies --   1205.0551              1285.8274              1305.7700
 Red. masses --      1.1571                 1.2918                 1.3183
 Frc consts  --      0.9900                 1.2583                 1.3244
 IR Inten    --      9.5730                 1.7147                 2.0818

                     31                     32                     33
                      A                      A                      A
 Frequencies --   1315.8465              1350.5255              1357.1388
 Red. masses --      1.3659                 1.3150                 1.5084
 Frc consts  --      1.3934                 1.4132                 1.6369
 IR Inten    --      6.2148                 9.1116                 3.7623

                     34                     35                     36
                      A                      A                      A
 Frequencies --   1380.5738              1395.6495              1405.9266
 Red. masses --      1.4193                 1.4270                 1.3946
 Frc consts  --      1.5938                 1.6376                 1.6241
 IR Inten    --     12.3810                10.0138                 2.7423

                     37                     38                     39
                      A                      A                      A
 Frequencies --   1412.2507              1468.9122              1485.3366
 Red. masses --      1.5056                 1.0927                 1.0531
 Frc consts  --      1.7692                 1.3892                 1.3689
 IR Inten    --      6.6441                 4.7092                 2.9074

                     40                     41                     42
                      A                      A                      A
 Frequencies --   1497.2565              1709.3342              3013.3913
 Red. masses --      1.0462                 6.4232                 1.0644
 Frc consts  --      1.3818                11.0575                 5.6946
 IR Inten    --      3.4133                 5.2839                20.4331

                     43                     44                     45
                      A                      A                      A
 Frequencies --   3017.9929              3037.6612              3046.9111
 Red. masses --      1.0816                 1.0354                 1.0990
 Frc consts  --      5.8045                 5.6289                 6.0115
 IR Inten    --     34.4397                16.5763                24.0393

                     46                     47                     48
                      A                      A                      A
 Frequencies --   3091.5919              3100.0402              3110.9954
 Red. masses --      1.0875                 1.0905                 1.1008
 Frc consts  --      6.1240                 6.1748                 6.2773
 IR Inten    --     36.5585                32.0453                21.7404

                     49                     50                     51
                      A                      A                      A
 Frequencies --   3121.3499              3159.1738              3191.0725
 Red. masses --      1.1025                 1.0860                 1.0978
 Frc consts  --      6.3287                 6.3862                 6.5866
 IR Inten    --     20.6473                11.9223                20.9030

 - Thermochemistry -
 -------------------
 Temperature   298.150 Kelvin.  Pressure   1.00000 Atm.
 Atom     1 has atomic number  6 and mass  12.00000

 Molecular mass:   126.06808 amu.
 Principal axes and moments of inertia in atomic units:
                           1         2         3
     Eigenvalues --   611.465351083.489811278.05575
           X            0.99981  -0.01799  -0.00770
           Y            0.01785   0.99969  -0.01753
           Z            0.00801   0.01739   0.99982
 This molecule is an asymmetric top.
 Rotational symmetry number  1.
 Warning -- assumption of classical behavior for rotation
           may cause significant error
 Rotational temperatures (Kelvin)      0.14165     0.07994     0.06777
 Rotational constants (GHZ):           2.95150     1.66567     1.41210
 Zero-point vibrational energy     424058.5 (Joules/Mol)
                                  101.35241 (Kcal/Mol)
 Warning -- explicit consideration of   9 degrees of freedom as
           vibrations may cause significant error
 Vibrational temperatures:    144.32   344.72   367.50   416.54   445.03
          (Kelvin)            600.57   700.84   742.45   854.81  1007.97
                             1020.27  1135.45  1151.81  1250.17  1264.99
                             1297.93  1349.25  1391.17  1408.05  1424.31
                             1475.74  1508.55  1550.09  1569.72  1626.21
                             1632.55  1715.25  1733.80  1850.02  1878.71
                             1893.21  1943.10  1952.62  1986.34  2008.03
                             2022.81  2031.91  2113.43  2137.07  2154.22
                             2459.35  4335.59  4342.21  4370.51  4383.82
                             4448.11  4460.26  4476.02  4490.92  4545.34
                             4591.24

 Zero-point correction=                           0.161515 (Hartree/Particle)
 Thermal correction to Energy=                    0.168821
 Thermal correction to Enthalpy=                  0.169765
 Thermal correction to Gibbs Free Energy=         0.129986
 Sum of electronic and zero-point Energies=           -423.043650
 Sum of electronic and thermal Energies=              -423.036344
 Sum of electronic and thermal Enthalpies=            -423.035400
 Sum of electronic and thermal Free Energies=         -423.075180

                     E (Thermal)             CV                S
                      KCal/Mol        Cal/Mol-Kelvin    Cal/Mol-Kelvin
 Total                  105.937             29.518             83.723
 Electronic               0.000              0.000              0.000
 Translational            0.889              2.981             40.409
 Rotational               0.889              2.981             28.228
 Vibrational            104.159             23.557             15.086
 Vibration     1          0.604              1.949              3.448
 Vibration     2          0.657              1.780              1.806
 Vibration     3          0.666              1.754              1.693
 Vibration     4          0.686              1.693              1.477
 Vibration     5          0.699              1.656              1.366
 Vibration     6          0.780              1.432              0.901
 Vibration     7          0.843              1.279              0.691
 Vibration     8          0.871              1.214              0.619
 Vibration     9          0.952              1.044              0.460

 Optimization completed.
    -- Stationary point found.
 Normal termination of Gaussian 09 at Tue Jan 28 04:01:32 2020.
