 Gaussian 09, Revision D.01,
 Gaussian 09:  ES64L-G09RevD.01 24-Apr-2013

 -----------------------------
 # b3lyp 6-31G(2df,p) opt Freq
 -----------------------------

 -----
 titel
 -----
 Symbolic Z-matrix:
 Charge =  0 Multiplicity = 1

 SCF Done:  E(RB3LYP) =  -423.180924405     A.U. after   13 cycles
 Optimization completed.
    -- Stationary point found.
 Normal termination of Gaussian 09 at Mon Jan 27 11:18:47 2020.

 ----------------------------------------------------------------------
 #N Geom=AllCheck Guess=TCheck SCRF=Check GenChk RB3LYP/6-31G(2df,p) Fr
 eq
 ----------------------------------------------------------------------

 Structure from the checkpoint file:  "/scratch/puck/g09_84a71bc7-6769-4822-83d3-3893939151e2/Gau-150279.chk"
 -----
 titel
 -----
 Charge =  0 Multiplicity = 1

                         Standard orientation:
 ---------------------------------------------------------------------
 Center     Atomic      Atomic             Coordinates (Angstroms)
 Number     Number       Type             X           Y           Z
 ---------------------------------------------------------------------
      1          6           0        2.080793    0.105304    0.010334
      2          6           0        0.996098   -0.015949    1.054463
      3          6           0        1.050059   -0.983707   -0.108541
      4          6           0       -0.185377   -0.751910   -0.972245
      5          8           0       -1.341130   -1.081135   -0.216523
      6          6           0       -1.439486   -0.289726    0.978159
      7          6           0       -0.315279    0.765294    0.982977
      8          6           0       -0.429120    1.511273   -0.349490
      9          8           0       -0.252867    0.584087   -1.431493
     10          1           0        2.062956    0.910822   -0.712763
     11          1           0        3.074710   -0.196634    0.321983
     12          1           0        1.286072   -0.362836    2.041172
     13          1           0        1.332337   -2.019741    0.043019
     14          1           0       -0.219947   -1.381713   -1.862625
     15          1           0       -2.427732    0.187972    0.983347
     16          1           0       -1.370385   -0.945116    1.857060
     17          1           0       -0.439590    1.461262    1.817627
     18          1           0       -1.419294    1.978606   -0.439239
     19          1           0        0.326720    2.300285   -0.439388
 ---------------------------------------------------------------------

 SCF Done:  E(RB3LYP) =  -423.180924405     A.U. after    1 cycles

 The electronic state is 1-A.
 Alpha  occ. eigenvalues --  -19.13806 -19.13497 -10.27386 -10.23079 -10.22850
 Alpha  occ. eigenvalues --  -10.19979 -10.19551 -10.18825 -10.18714  -1.06724
 Alpha  occ. eigenvalues --   -0.99367  -0.86757  -0.79356  -0.68515  -0.67184
 Alpha  occ. eigenvalues --   -0.61826  -0.59205  -0.53941  -0.50997  -0.50076
 Alpha  occ. eigenvalues --   -0.48853  -0.45818  -0.42881  -0.41744  -0.40715
 Alpha  occ. eigenvalues --   -0.39288  -0.38436  -0.35384  -0.34050  -0.33857
 Alpha  occ. eigenvalues --   -0.28515  -0.27847  -0.25096  -0.24657
 Alpha virt. eigenvalues --    0.08123   0.10652   0.11512   0.11915   0.13823
 Alpha virt. eigenvalues --    0.14724   0.14897   0.14997   0.15267   0.17232
 Alpha virt. eigenvalues --    0.17997   0.18775   0.19934   0.20535   0.20764

 Mulliken charges:
               1
     1  C   -0.322222
     2  C   -0.031648
     3  C   -0.048834
     4  C    0.194372
     5  O   -0.273078
     6  C   -0.056265
     7  C   -0.092205
     8  C   -0.081187
     9  O   -0.270559
    10  H    0.130890
    11  H    0.110356
    12  H    0.087626
    13  H    0.091560
    14  H    0.088810
    15  H    0.100157
    16  H    0.094219
    17  H    0.073771
    18  H    0.100976
    19  H    0.103258
 Sum of Mulliken charges =   0.00000

 Dipole moment (field-independent basis, Debye):
    X=              0.9395    Y=              0.6430    Z=              1.8985  Tot=              2.2137
 Quadrupole moment (field-independent basis, Debye-Ang):
   XX=            -53.3789   YY=            -51.9567   ZZ=            -53.6337
   XY=             -3.0778   XZ=             -1.4483   YZ=              1.1729

  Exact polarizability:  77.259  -2.098  71.019  -2.705   1.424  69.082
 Approx polarizability: 107.376   0.343 106.541  -3.756   3.900 106.363

                      1                      2                      3
                      A                      A                      A
 Frequencies --    193.9543               301.0860               333.4578
 Red. masses --      2.9755                 2.9468                 3.4429
 Frc consts  --      0.0659                 0.1574                 0.2256
 IR Inten    --      2.3968                 0.7398                 1.5632

                      4                      5                      6
                      A                      A                      A
 Frequencies --    346.9086               432.1701               528.9664
 Red. masses --      2.2616                 4.4250                 3.1017
 Frc consts  --      0.1604                 0.4869                 0.5113
 IR Inten    --      2.8942                 4.7408                 0.0387

                      7                      8                      9
                      A                      A                      A
 Frequencies --    580.6725               590.2312               683.2543
 Red. masses --      5.0708                 4.9846                 5.0658
 Frc consts  --      1.0074                 1.0231                 1.3934
 IR Inten    --      2.0710                 3.1180                 0.2425

                     10                     11                     12
                      A                      A                      A
 Frequencies --    749.6846               820.3074               835.1724
 Red. masses --      2.2088                 1.7033                 3.8379
 Frc consts  --      0.7314                 0.6753                 1.5772
 IR Inten    --      4.4583                 5.9583                 3.7266

                     13                     14                     15
                      A                      A                      A
 Frequencies --    877.7779               892.2346               909.1372
 Red. masses --      2.0988                 2.6363                 2.6864
 Frc consts  --      0.9528                 1.2365                 1.3082
 IR Inten    --     15.8197                15.9040                10.2922

                     16                     17                     18
                      A                      A                      A
 Frequencies --    953.3869               958.8615               963.4580
 Red. masses --      2.3532                 2.3765                 1.9991
 Frc consts  --      1.2602                 1.2873                 1.0933
 IR Inten    --     45.0701                21.3041                43.1094

                     19                     20                     21
                      A                      A                      A
 Frequencies --   1009.5287              1034.6689              1057.9058
 Red. masses --      2.8095                 1.9774                 1.6450
 Frc consts  --      1.6870                 1.2472                 1.0847
 IR Inten    --     21.4001                37.6744                 4.0794

                     22                     23                     24
                      A                      A                      A
 Frequencies --   1078.4250              1084.3645              1110.4867
 Red. masses --      1.6531                 2.3042                 1.8513
 Frc consts  --      1.1327                 1.5964                 1.3451
 IR Inten    --     22.0018                23.6018                 6.3282

                     25                     26                     27
                      A                      A                      A
 Frequencies --   1118.0357              1130.2372              1164.2898
 Red. masses --      1.5275                 1.6160                 3.0595
 Frc consts  --      1.1250                 1.2163                 2.4435
 IR Inten    --     15.5828                 3.1516                77.3309

                     28                     29                     30
                      A                      A                      A
 Frequencies --   1206.3419              1224.3229              1229.2056
 Red. masses --      1.5501                 1.1089                 1.1368
 Frc consts  --      1.3291                 0.9794                 1.0120
 IR Inten    --      1.6847                 4.0135                 8.6554

                     31                     32                     33
                      A                      A                      A
 Frequencies --   1297.1101              1331.1563              1338.3192
 Red. masses --      1.6005                 1.2745                 1.8564
 Frc consts  --      1.5866                 1.3306                 1.9590
 IR Inten    --      6.0318                 3.1532                 3.2348

                     34                     35                     36
                      A                      A                      A
 Frequencies --   1355.9305              1363.9163              1392.1932
 Red. masses --      1.2047                 1.7429                 1.4796
 Frc consts  --      1.3050                 1.9103                 1.6897
 IR Inten    --      0.7699                16.1867                 2.6519

                     37                     38                     39
                      A                      A                      A
 Frequencies --   1405.2795              1421.7459              1493.2807
 Red. masses --      1.4009                 1.5175                 1.3027
 Frc consts  --      1.6300                 1.8072                 1.7115
 IR Inten    --      4.4363                 7.3526                 2.6720

                     40                     41                     42
                      A                      A                      A
 Frequencies --   1519.7295              1533.2399              3001.9182
 Red. masses --      1.0866                 1.0906                 1.0574
 Frc consts  --      1.4787                 1.5105                 5.6141
 IR Inten    --      1.6043                 0.9241                66.9196

                     43                     44                     45
                      A                      A                      A
 Frequencies --   3007.2523              3040.3181              3049.1212
 Red. masses --      1.0618                 1.1073                 1.1044
 Frc consts  --      5.6577                 6.0305                 6.0498
 IR Inten    --     58.6202                41.9701                44.4001

                     46                     47                     48
                      A                      A                      A
 Frequencies --   3068.7482              3105.1542              3143.7874
 Red. masses --      1.0859                 1.0900                 1.0559
 Frc consts  --      6.0252                 6.1922                 6.1488
 IR Inten    --     41.7109                31.8441                13.9688

                     49                     50                     51
                      A                      A                      A
 Frequencies --   3154.0578              3171.2908              3232.2741
 Red. masses --      1.0882                 1.0921                 1.1151
 Frc consts  --      6.3783                 6.4713                 6.8638
 IR Inten    --     17.8390                15.2222                 6.4295

 - Thermochemistry -
 -------------------
 Temperature   298.150 Kelvin.  Pressure   1.00000 Atm.
 Atom     1 has atomic number  6 and mass  12.00000

 Molecular mass:   126.06808 amu.
 Principal axes and moments of inertia in atomic units:
                           1         2         3
     Eigenvalues --   701.75935 930.38049 937.61112
           X            0.99791  -0.02783  -0.05825
           Y            0.05099  -0.21353   0.97560
           Z            0.03958   0.97654   0.21167
 This molecule is an asymmetric top.
 Rotational symmetry number  1.
 Warning -- assumption of classical behavior for rotation
           may cause significant error
 Rotational temperatures (Kelvin)      0.12342     0.09310     0.09238
 Rotational constants (GHZ):           2.57174     1.93979     1.92483
 Zero-point vibrational energy     429605.1 (Joules/Mol)
                                  102.67807 (Kcal/Mol)
 Warning -- explicit consideration of   8 degrees of freedom as
           vibrations may cause significant error
 Vibrational temperatures:    279.06   433.20   479.77   499.12   621.80
          (Kelvin)            761.06   835.46   849.21   983.05  1078.63
                             1180.24  1201.63  1262.93  1283.72  1308.04
                             1371.71  1379.59  1386.20  1452.48  1488.66
                             1522.09  1551.61  1560.16  1597.74  1608.60
                             1626.16  1675.15  1735.65  1761.53  1768.55
                             1866.25  1915.23  1925.54  1950.88  1962.37
                             2003.05  2021.88  2045.57  2148.50  2186.55
                             2205.99  4319.09  4326.76  4374.33  4387.00
                             4415.24  4467.62  4523.20  4537.98  4562.77
                             4650.52

 Zero-point correction=                           0.163628 (Hartree/Particle)
 Thermal correction to Energy=                    0.170035
 Thermal correction to Enthalpy=                  0.170979
 Thermal correction to Gibbs Free Energy=         0.133271
 Sum of electronic and zero-point Energies=           -423.017296
 Sum of electronic and thermal Energies=              -423.010890
 Sum of electronic and thermal Enthalpies=            -423.009945
 Sum of electronic and thermal Free Energies=         -423.047653

                     E (Thermal)             CV                S
                      KCal/Mol        Cal/Mol-Kelvin    Cal/Mol-Kelvin
 Total                  106.698             27.396             79.362
 Electronic               0.000              0.000              0.000
 Translational            0.889              2.981             40.409
 Rotational               0.889              2.981             27.906
 Vibrational            104.921             21.434             11.048
 Vibration     1          0.635              1.848              2.190
 Vibration     2          0.693              1.672              1.411
 Vibration     3          0.715              1.609              1.243
 Vibration     4          0.725              1.582              1.180
 Vibration     5          0.793              1.400              0.852
 Vibration     6          0.884              1.186              0.590
 Vibration     7          0.937              1.073              0.484
 Vibration     8          0.948              1.053              0.467

 Optimization completed.
    -- Stationary point found.
 Normal termination of Gaussian 09 at Mon Jan 27 12:10:18 2020.
