 Gaussian 09, Revision D.01,
 Gaussian 09:  ES64L-G09RevD.01 24-Apr-2013

 -----------------------------
 # b3lyp 6-31G(2df,p) opt Freq
 -----------------------------

 -----
 titel
 -----
 Symbolic Z-matrix:
 Charge =  0 Multiplicity = 1

 SCF Done:  E(RB3LYP) =  -423.183929284     A.U. after   13 cycles
 Optimization completed.
    -- Stationary point found.
 Normal termination of Gaussian 09 at Tue Jan 28 03:56:06 2020.

 ----------------------------------------------------------------------
 #N Geom=AllCheck Guess=TCheck SCRF=Check GenChk RB3LYP/6-31G(2df,p) Fr
 eq
 ----------------------------------------------------------------------

 Structure from the checkpoint file:  "/scratch/puck/g09_0f37d52b-76c4-4135-a842-a46bab828dd0/Gau-115526.chk"
 -----
 titel
 -----
 Charge =  0 Multiplicity = 1

                         Standard orientation:
 ---------------------------------------------------------------------
 Center     Atomic      Atomic             Coordinates (Angstroms)
 Number     Number       Type             X           Y           Z
 ---------------------------------------------------------------------
      1          8           0       -2.652453   -0.233889   -0.221128
      2          6           0       -1.269435   -0.023897   -0.484265
      3          6           0       -0.727280    1.304435    0.103247
      4          6           0        0.652748    0.965745    0.697177
      5          8           0        1.660064    0.964927   -0.319442
      6          6           0        1.704536   -0.319608   -0.937821
      7          6           0        0.989416   -1.280307    0.000654
      8          6           0       -0.494919   -1.108235    0.259357
      9          6           0        0.521478   -0.485556    1.186996
     10          1           0       -3.147761    0.439124   -0.698256
     11          1           0       -1.090113   -0.079135   -1.569183
     12          1           0       -0.667668    2.124627   -0.617762
     13          1           0       -1.407939    1.593245    0.912726
     14          1           0        0.970021    1.675830    1.463882
     15          1           0        1.241582   -0.279631   -1.935748
     16          1           0        2.754953   -0.603949   -1.070110
     17          1           0        1.402709   -2.274314    0.127152
     18          1           0       -1.059747   -1.989025    0.541790
     19          1           0        0.683814   -0.770537    2.217992
 ---------------------------------------------------------------------

 SCF Done:  E(RB3LYP) =  -423.183929284     A.U. after    1 cycles

 The electronic state is 1-A.
 Alpha  occ. eigenvalues --  -19.13354 -19.12899 -10.23196 -10.23019 -10.22549
 Alpha  occ. eigenvalues --  -10.19377 -10.18898 -10.18725 -10.17411  -1.03011
 Alpha  occ. eigenvalues --   -1.01500  -0.87247  -0.77111  -0.70651  -0.66893
 Alpha  occ. eigenvalues --   -0.58851  -0.57196  -0.54840  -0.53371  -0.49783
 Alpha  occ. eigenvalues --   -0.45501  -0.43794  -0.43519  -0.42487  -0.41234
 Alpha  occ. eigenvalues --   -0.39060  -0.35963  -0.34754  -0.32788  -0.30745
 Alpha  occ. eigenvalues --   -0.28674  -0.28073  -0.26488  -0.24075
 Alpha virt. eigenvalues --    0.07410   0.08666   0.10419   0.11582   0.13141
 Alpha virt. eigenvalues --    0.14213   0.15039   0.15651   0.16921   0.17430
 Alpha virt. eigenvalues --    0.18567   0.18814   0.19380   0.21153   0.23833

 Mulliken charges:
               1
     1  O   -0.446785
     2  C    0.105520
     3  C   -0.249881
     4  C    0.073484
     5  O   -0.268491
     6  C   -0.097717
     7  C   -0.088131
     8  C   -0.040756
     9  C   -0.093871
    10  H    0.281050
    11  H    0.068828
    12  H    0.097397
    13  H    0.103981
    14  H    0.082366
    15  H    0.093732
    16  H    0.103236
    17  H    0.092328
    18  H    0.095264
    19  H    0.088449
 Sum of Mulliken charges =   0.00000

 Dipole moment (field-independent basis, Debye):
    X=             -0.3777    Y=             -0.1855    Z=             -0.1986  Tot=              0.4654
 Quadrupole moment (field-independent basis, Debye-Ang):
   XX=            -55.1096   YY=            -52.1590   ZZ=            -50.6332
   XY=             -6.8616   XZ=              2.8489   YZ=              0.0736

  Exact polarizability:  79.773  -3.873  71.447  -0.956   1.063  68.209
 Approx polarizability: 111.059  -1.671 104.514  -2.417   2.432 104.830

                      1                      2                      3
                      A                      A                      A
 Frequencies --     95.0994               175.4467               266.9862
 Red. masses --      3.8599                 2.4962                 1.1029
 Frc consts  --      0.0206                 0.0453                 0.0463
 IR Inten    --      3.3610                 2.5533                92.7749

                      4                      5                      6
                      A                      A                      A
 Frequencies --    327.7921               345.3029               416.3264
 Red. masses --      4.1209                 4.3548                 2.1467
 Frc consts  --      0.2609                 0.3059                 0.2192
 IR Inten    --      9.8798                 4.9601                 2.8933

                      7                      8                      9
                      A                      A                      A
 Frequencies --    517.6124               604.9914               668.1218
 Red. masses --      3.0997                 5.7081                 3.8614
 Frc consts  --      0.4893                 1.2310                 1.0155
 IR Inten    --      6.7354                 3.7107                 0.6615

                     10                     11                     12
                      A                      A                      A
 Frequencies --    720.5564               765.0972               787.0438
 Red. masses --      4.0506                 3.7602                 2.3982
 Frc consts  --      1.2391                 1.2969                 0.8753
 IR Inten    --      1.6121                 4.2790                 3.1997

                     13                     14                     15
                      A                      A                      A
 Frequencies --    823.1430               854.5862               876.5810
 Red. masses --      1.6166                 3.2442                 2.5603
 Frc consts  --      0.6454                 1.3960                 1.1591
 IR Inten    --      0.1920                12.8293                 5.1231

                     16                     17                     18
                      A                      A                      A
 Frequencies --    941.5039               962.2934               964.6102
 Red. masses --      1.7850                 2.0283                 2.0707
 Frc consts  --      0.9323                 1.1066                 1.1352
 IR Inten    --     15.3610                13.3573                22.3338

                     19                     20                     21
                      A                      A                      A
 Frequencies --    984.2725              1020.0707              1040.5519
 Red. masses --      2.3575                 2.3660                 2.5852
 Frc consts  --      1.3456                 1.4505                 1.6492
 IR Inten    --      4.2317                27.0015                 8.1933

                     22                     23                     24
                      A                      A                      A
 Frequencies --   1052.5895              1067.7402              1078.9937
 Red. masses --      2.1634                 2.2995                 2.2247
 Frc consts  --      1.4122                 1.5446                 1.5260
 IR Inten    --     19.3377                30.5750                23.7171

                     25                     26                     27
                      A                      A                      A
 Frequencies --   1099.8865              1131.7585              1152.6298
 Red. masses --      1.3975                 3.0545                 1.4830
 Frc consts  --      0.9961                 2.3051                 1.1608
 IR Inten    --     13.5337                69.4236                 7.7685

                     28                     29                     30
                      A                      A                      A
 Frequencies --   1190.8378              1226.3480              1241.3520
 Red. masses --      1.3588                 1.1102                 1.0834
 Frc consts  --      1.1353                 0.9837                 0.9836
 IR Inten    --      8.3875                 1.6811                45.9175

                     31                     32                     33
                      A                      A                      A
 Frequencies --   1250.4886              1279.9352              1312.2156
 Red. masses --      1.6816                 1.3701                 1.5585
 Frc consts  --      1.5493                 1.3224                 1.5811
 IR Inten    --     13.6633                 3.7403                 2.1791

                     34                     35                     36
                      A                      A                      A
 Frequencies --   1326.6693              1339.5359              1353.5102
 Red. masses --      1.5581                 1.3298                 1.4781
 Frc consts  --      1.6158                 1.4059                 1.5954
 IR Inten    --     21.0942                 4.6997                 5.4797

                     37                     38                     39
                      A                      A                      A
 Frequencies --   1375.6271              1410.9784              1434.0723
 Red. masses --      1.6338                 1.8816                 1.5557
 Frc consts  --      1.8215                 2.2071                 1.8850
 IR Inten    --      1.2715                 6.8352                 6.8896

                     40                     41                     42
                      A                      A                      A
 Frequencies --   1473.3227              1529.8565              2972.0805
 Red. masses --      1.1201                 1.0873                 1.0825
 Frc consts  --      1.4326                 1.4993                 5.6336
 IR Inten    --      1.7970                 0.6006                25.1167

                     43                     44                     45
                      A                      A                      A
 Frequencies --   2984.6144              3040.0941              3047.4580
 Red. masses --      1.0699                 1.0609                 1.0940
 Frc consts  --      5.6154                 5.7767                 5.9863
 IR Inten    --     91.5515                19.5174                47.6153

                     46                     47                     48
                      A                      A                      A
 Frequencies --   3090.9552              3101.7153              3174.1657
 Red. masses --      1.0885                 1.1037                 1.0896
 Frc consts  --      6.1271                 6.2561                 6.4684
 IR Inten    --     37.4435                24.4361                 8.4115

                     49                     50                     51
                      A                      A                      A
 Frequencies --   3183.0853              3200.8482              3820.8415
 Red. masses --      1.0894                 1.0955                 1.0662
 Frc consts  --      6.5032                 6.6127                 9.1712
 IR Inten    --     12.0615                13.3138                20.0105

 - Thermochemistry -
 -------------------
 Temperature   298.150 Kelvin.  Pressure   1.00000 Atm.
 Atom     1 has atomic number  8 and mass  15.99491

 Molecular mass:   126.06808 amu.
 Principal axes and moments of inertia in atomic units:
                           1         2         3
     Eigenvalues --   578.335951156.638551334.96658
           X            0.99909  -0.04257   0.00073
           Y            0.04256   0.99904   0.01024
           Z           -0.00117  -0.01020   0.99995
 This molecule is an asymmetric top.
 Rotational symmetry number  1.
 Warning -- assumption of classical behavior for rotation
           may cause significant error
 Rotational temperatures (Kelvin)      0.14976     0.07488     0.06488
 Rotational constants (GHZ):           3.12058     1.56033     1.35190
 Zero-point vibrational energy     425285.6 (Joules/Mol)
                                  101.64569 (Kcal/Mol)
 Warning -- explicit consideration of   8 degrees of freedom as
           vibrations may cause significant error
 Vibrational temperatures:    136.83   252.43   384.13   471.62   496.81
          (Kelvin)            599.00   744.73   870.45   961.28  1036.72
                             1100.80  1132.38  1184.32  1229.56  1261.20
                             1354.61  1384.52  1387.86  1416.15  1467.65
                             1497.12  1514.44  1536.24  1552.43  1582.49
                             1628.35  1658.38  1713.35  1764.44  1786.03
                             1799.17  1841.54  1887.98  1908.78  1927.29
                             1947.40  1979.22  2030.08  2063.31  2119.78
                             2201.12  4276.16  4294.19  4374.01  4384.61
                             4447.19  4462.67  4566.91  4579.74  4605.30
                             5497.33

 Zero-point correction=                           0.161983 (Hartree/Particle)
 Thermal correction to Energy=                    0.169167
 Thermal correction to Enthalpy=                  0.170111
 Thermal correction to Gibbs Free Energy=         0.130399
 Sum of electronic and zero-point Energies=           -423.021947
 Sum of electronic and thermal Energies=              -423.014762
 Sum of electronic and thermal Enthalpies=            -423.013818
 Sum of electronic and thermal Free Energies=         -423.053530

                     E (Thermal)             CV                S
                      KCal/Mol        Cal/Mol-Kelvin    Cal/Mol-Kelvin
 Total                  106.154             29.143             83.580
 Electronic               0.000              0.000              0.000
 Translational            0.889              2.981             40.409
 Rotational               0.889              2.981             28.281
 Vibrational            104.376             23.182             14.890
 Vibration     1          0.603              1.953              3.552
 Vibration     2          0.627              1.873              2.376
 Vibration     3          0.672              1.734              1.616
 Vibration     4          0.711              1.620              1.271
 Vibration     5          0.724              1.585              1.188
 Vibration     6          0.780              1.435              0.905
 Vibration     7          0.873              1.211              0.616
 Vibration     8          0.964              1.021              0.441

 Normal termination of Gaussian 09 at Tue Jan 28 04:46:28 2020.
