 Gaussian 09, Revision D.01,
 Gaussian 09:  ES64L-G09RevD.01 24-Apr-2013

 -----------------------------
 # b3lyp 6-31G(2df,p) opt Freq
 -----------------------------

 -----
 titel
 -----
 Symbolic Z-matrix:
 Charge =  0 Multiplicity = 1

 SCF Done:  E(RB3LYP) =  -423.178857473     A.U. after   14 cycles
 Optimization completed.
    -- Stationary point found.
 Normal termination of Gaussian 09 at Tue Jan 28 00:06:20 2020.

 ----------------------------------------------------------------------
 #N Geom=AllCheck Guess=TCheck SCRF=Check GenChk RB3LYP/6-31G(2df,p) Fr
 eq
 ----------------------------------------------------------------------

 Structure from the checkpoint file:  "/scratch/puck/g09_f91d2cd3-c0f4-497e-abe4-a026f0ff9c13/Gau-21320.chk"
 -----
 titel
 -----
 Charge =  0 Multiplicity = 1

                         Standard orientation:
 ---------------------------------------------------------------------
 Center     Atomic      Atomic             Coordinates (Angstroms)
 Number     Number       Type             X           Y           Z
 ---------------------------------------------------------------------
      1          6           0        1.668145   -1.290055   -0.958338
      2          6           0        0.890031   -0.372827   -0.037648
      3          8           0        1.748881    0.682262    0.498165
      4          6           0        0.804645    1.700234    0.110078
      5          6           0       -0.118373    0.679554   -0.586938
      6          6           0       -1.487274    0.401457    0.062501
      7          8           0       -2.475825   -0.076068   -0.848231
      8          6           0       -1.152082   -0.615627    1.133710
      9          6           0        0.104541   -1.056324    1.055577
     10          1           0        2.148875   -0.715401   -1.754740
     11          1           0        2.450097   -1.814565   -0.398612
     12          1           0        1.011154   -2.040544   -1.410611
     13          1           0        0.359815    2.206056    0.977900
     14          1           0        1.267302    2.451402   -0.539619
     15          1           0       -0.196772    0.784851   -1.669255
     16          1           0       -1.924203    1.316274    0.479785
     17          1           0       -2.216579   -0.966079   -1.111568
     18          1           0       -1.897256   -0.951403    1.847137
     19          1           0        0.555321   -1.798606    1.706462
 ---------------------------------------------------------------------

 SCF Done:  E(RB3LYP) =  -423.178857473     A.U. after    1 cycles

 The electronic state is 1-A.
 Alpha  occ. eigenvalues --  -19.13745 -19.12776 -10.24068 -10.23711 -10.22824
 Alpha  occ. eigenvalues --  -10.19039 -10.18948 -10.18674 -10.18069  -1.03443
 Alpha  occ. eigenvalues --   -1.01803  -0.82968  -0.75170  -0.72992  -0.65963
 Alpha  occ. eigenvalues --   -0.64188  -0.57004  -0.53037  -0.51510  -0.48085
 Alpha  occ. eigenvalues --   -0.47458  -0.43932  -0.43281  -0.42164  -0.41177
 Alpha  occ. eigenvalues --   -0.38694  -0.37595  -0.36286  -0.33850  -0.31738
 Alpha  occ. eigenvalues --   -0.30364  -0.27274  -0.26388  -0.24388
 Alpha virt. eigenvalues --   -0.00132   0.08014   0.08958   0.10526   0.11808
 Alpha virt. eigenvalues --    0.12985   0.13588   0.14120   0.16081   0.16766
 Alpha virt. eigenvalues --    0.17614   0.19230   0.19850   0.21600   0.22889

 Mulliken charges:
               1
     1  C   -0.456269
     2  C    0.409995
     3  O   -0.327422
     4  C   -0.090201
     5  C   -0.170455
     6  C    0.084622
     7  O   -0.433970
     8  C   -0.129868
     9  C   -0.113063
    10  H    0.124581
    11  H    0.128330
    12  H    0.113331
    13  H    0.097862
    14  H    0.104705
    15  H    0.082770
    16  H    0.092050
    17  H    0.274331
    18  H    0.104723
    19  H    0.103947
 Sum of Mulliken charges =   0.00000

 Dipole moment (field-independent basis, Debye):
    X=             -0.1326    Y=             -1.0581    Z=             -0.3400  Tot=              1.1193
 Quadrupole moment (field-independent basis, Debye-Ang):
   XX=            -61.1237   YY=            -48.7330   ZZ=            -52.3609
   XY=              0.1119   XZ=             -3.9917   YZ=              0.0312

  Exact polarizability:  83.883  -3.121  76.325  -3.553  -2.286  67.356
 Approx polarizability: 129.200  -7.634 109.896   0.060  -2.758  99.510

                      1                      2                      3
                      A                      A                      A
 Frequencies --     91.3212               185.7576               214.5356
 Red. masses --      3.5741                 2.8379                 1.5597
 Frc consts  --      0.0176                 0.0577                 0.0423
 IR Inten    --      3.2471                 0.5667                 0.6580

                      4                      5                      6
                      A                      A                      A
 Frequencies --    226.2791               307.7354               326.4780
 Red. masses --      1.5205                 2.6018                 1.2013
 Frc consts  --      0.0459                 0.1452                 0.0754
 IR Inten    --      0.4392                 0.9074                50.7309

                      7                      8                      9
                      A                      A                      A
 Frequencies --    355.6021               373.0176               428.6070
 Red. masses --      2.7687                 5.1139                 2.6072
 Frc consts  --      0.2063                 0.4192                 0.2822
 IR Inten    --     24.4721                17.2732                 3.5445

                     10                     11                     12
                      A                      A                      A
 Frequencies --    573.3575               615.6015               697.7507
 Red. masses --      3.7349                 3.4680                 3.9843
 Frc consts  --      0.7234                 0.7743                 1.1429
 IR Inten    --      2.4204                 0.5907                 0.8203

                     13                     14                     15
                      A                      A                      A
 Frequencies --    740.0299               803.7619               840.4885
 Red. masses --      4.3658                 1.8597                 1.7602
 Frc consts  --      1.4087                 0.7079                 0.7326
 IR Inten    --      3.1603                 6.4524                27.6805

                     16                     17                     18
                      A                      A                      A
 Frequencies --    881.2578               896.6943               942.0264
 Red. masses --      2.2448                 2.8391                 1.7188
 Frc consts  --      1.0271                 1.3450                 0.8987
 IR Inten    --      8.9676                26.8079                13.5815

                     19                     20                     21
                      A                      A                      A
 Frequencies --    961.7252               988.8134              1009.4416
 Red. masses --      1.8183                 1.3834                 7.1074
 Frc consts  --      0.9909                 0.7969                 4.2670
 IR Inten    --     10.2141                 2.8743                63.6210

                     22                     23                     24
                      A                      A                      A
 Frequencies --   1040.1533              1056.0851              1088.6810
 Red. masses --      4.7082                 2.0462                 1.9770
 Frc consts  --      3.0012                 1.3446                 1.3805
 IR Inten    --     66.5180                34.9071                 6.4598

                     25                     26                     27
                      A                      A                      A
 Frequencies --   1105.4535              1124.2198              1166.2037
 Red. masses --      1.2342                 2.5504                 1.1236
 Frc consts  --      0.8886                 1.8992                 0.9003
 IR Inten    --      8.2816                49.0927                 3.6223

                     28                     29                     30
                      A                      A                      A
 Frequencies --   1173.9842              1231.5522              1251.6206
 Red. masses --      1.9187                 2.2169                 1.2909
 Frc consts  --      1.5580                 1.9811                 1.1914
 IR Inten    --      8.7310                 3.5068                14.9398

                     31                     32                     33
                      A                      A                      A
 Frequencies --   1261.8338              1296.5191              1319.1743
 Red. masses --      2.4031                 1.4630                 1.7871
 Frc consts  --      2.2543                 1.4490                 1.8323
 IR Inten    --     14.2085                 1.3741                 5.1651

                     34                     35                     36
                      A                      A                      A
 Frequencies --   1348.5611              1382.4783              1404.6653
 Red. masses --      1.4325                 1.7472                 1.3121
 Frc consts  --      1.5349                 1.9675                 1.5254
 IR Inten    --      1.4977                15.1097                 8.8237

                     37                     38                     39
                      A                      A                      A
 Frequencies --   1424.5952              1480.5432              1490.2059
 Red. masses --      1.2377                 1.0555                 1.0529
 Frc consts  --      1.4800                 1.3632                 1.3776
 IR Inten    --     72.0006                 2.8919                 2.5951

                     40                     41                     42
                      A                      A                      A
 Frequencies --   1522.0837              1669.3189              3007.0561
 Red. masses --      1.0989                 6.7469                 1.0601
 Frc consts  --      1.5000                11.0773                 5.6478
 IR Inten    --      0.7390                 1.3614                62.5439

                     43                     44                     45
                      A                      A                      A
 Frequencies --   3033.1651              3044.0573              3059.0747
 Red. masses --      1.0352                 1.0842                 1.1051
 Frc consts  --      5.6112                 5.9195                 6.0929
 IR Inten    --     15.2774                36.5361                37.2653

                     46                     47                     48
                      A                      A                      A
 Frequencies --   3102.2794              3112.3505              3116.6236
 Red. masses --      1.1009                 1.0890                 1.1008
 Frc consts  --      6.2425                 6.2154                 6.3001
 IR Inten    --     16.7273                14.3569                22.5439

                     49                     50                     51
                      A                      A                      A
 Frequencies --   3178.1556              3203.1505              3800.3024
 Red. masses --      1.0848                 1.1039                 1.0661
 Frc consts  --      6.4556                 6.6730                 9.0713
 IR Inten    --      6.3861                15.5576                12.6862

 - Thermochemistry -
 -------------------
 Temperature   298.150 Kelvin.  Pressure   1.00000 Atm.
 Atom     1 has atomic number  6 and mass  12.00000

 Molecular mass:   126.06808 amu.
 Principal axes and moments of inertia in atomic units:
                           1         2         3
     Eigenvalues --   686.223791226.190511366.22888
           X            0.99898  -0.02385  -0.03828
           Y            0.02524   0.99903   0.03619
           Z            0.03738  -0.03712   0.99861
 This molecule is an asymmetric top.
 Rotational symmetry number  1.
 Warning -- assumption of classical behavior for rotation
           may cause significant error
 Rotational temperatures (Kelvin)      0.12622     0.07064     0.06340
 Rotational constants (GHZ):           2.62996     1.47183     1.32097
 Zero-point vibrational energy     418420.4 (Joules/Mol)
                                  100.00488 (Kcal/Mol)
 Warning -- explicit consideration of  11 degrees of freedom as
           vibrations may cause significant error
 Vibrational temperatures:    131.39   267.26   308.67   325.56   442.76
          (Kelvin)            469.73   511.63   536.69   616.67   824.93
                              885.71  1003.91  1064.74  1156.43  1209.27
                             1267.93  1290.14  1355.36  1383.71  1422.68
                             1452.36  1496.55  1519.47  1566.37  1590.50
                             1617.50  1677.90  1689.10  1771.93  1800.80
                             1815.50  1865.40  1898.00  1940.28  1989.08
                             2021.00  2049.67  2130.17  2144.07  2189.94
                             2401.77  4326.48  4364.04  4379.71  4401.32
                             4463.48  4477.97  4484.12  4572.65  4608.61
                             5467.78

 Zero-point correction=                           0.159368 (Hartree/Particle)
 Thermal correction to Energy=                    0.167609
 Thermal correction to Enthalpy=                  0.168553
 Thermal correction to Gibbs Free Energy=         0.126855
 Sum of electronic and zero-point Energies=           -423.019490
 Sum of electronic and thermal Energies=              -423.011248
 Sum of electronic and thermal Enthalpies=            -423.010304
 Sum of electronic and thermal Free Energies=         -423.052002

                     E (Thermal)             CV                S
                      KCal/Mol        Cal/Mol-Kelvin    Cal/Mol-Kelvin
 Total                  105.176             32.192             87.761
 Electronic               0.000              0.000              0.000
 Translational            0.889              2.981             40.409
 Rotational               0.889              2.981             28.532
 Vibrational            103.399             26.230             18.820
 Vibration     1          0.602              1.955              3.632
 Vibration     2          0.632              1.859              2.270
 Vibration     3          0.644              1.819              2.005
 Vibration     4          0.650              1.801              1.908
 Vibration     5          0.698              1.659              1.374
 Vibration     6          0.710              1.623              1.277
 Vibration     7          0.731              1.564              1.141
 Vibration     8          0.744              1.528              1.067
 Vibration     9          0.790              1.408              0.863
 Vibration    10          0.930              1.089              0.498
 Vibration    11          0.975              0.999              0.424

 Optimization completed.
    -- Stationary point found.
 Normal termination of Gaussian 09 at Tue Jan 28 00:58:59 2020.
