 Gaussian 09, Revision D.01,
 Gaussian 09:  ES64L-G09RevD.01 24-Apr-2013

 -----------------------------
 # b3lyp 6-31G(2df,p) opt Freq
 -----------------------------

 -----
 titel
 -----
 Symbolic Z-matrix:
 Charge =  0 Multiplicity = 1

 SCF Done:  E(RB3LYP) =  -423.243599038     A.U. after   14 cycles
 Optimization completed.
    -- Stationary point found.
 Normal termination of Gaussian 09 at Tue Jan 28 00:39:08 2020.

 ----------------------------------------------------------------------
 #N Geom=AllCheck Guess=TCheck SCRF=Check GenChk RB3LYP/6-31G(2df,p) Fr
 eq
 ----------------------------------------------------------------------

 Structure from the checkpoint file:  "/scratch/puck/g09_80ac2d45-9a90-490b-8adf-76f43f6e6d5c/Gau-921.chk"
 -----
 titel
 -----
 Charge =  0 Multiplicity = 1

                         Standard orientation:
 ---------------------------------------------------------------------
 Center     Atomic      Atomic             Coordinates (Angstroms)
 Number     Number       Type             X           Y           Z
 ---------------------------------------------------------------------
      1          6           0        1.603189   -1.985646    0.578352
      2          6           0        0.883495   -1.107421   -0.449522
      3          8           0        1.421010    0.225559   -0.332614
      4          6           0        0.704410    1.323790   -0.014620
      5          8           0        1.267062    2.381481    0.075993
      6          6           0       -0.791726    1.189523    0.217579
      7          6           0       -1.392675   -0.164421   -0.030846
      8          6           0       -2.886229   -0.270718    0.087571
      9          6           0       -0.605573   -1.191400   -0.335643
     10          1           0        1.330825   -1.685921    1.594447
     11          1           0        1.326155   -3.035265    0.440241
     12          1           0        2.685523   -1.891005    0.460332
     13          1           0        1.183934   -1.438337   -1.453841
     14          1           0       -0.979420    1.515782    1.249875
     15          1           0       -1.272378    1.955022   -0.405056
     16          1           0       -3.224375    0.030039    1.087414
     17          1           0       -3.385468    0.399348   -0.623880
     18          1           0       -3.234727   -1.289613   -0.098936
     19          1           0       -1.023996   -2.178622   -0.514850
 ---------------------------------------------------------------------

 SCF Done:  E(RB3LYP) =  -423.243599038     A.U. after    1 cycles

 The electronic state is 1-A.
 Alpha  occ. eigenvalues --  -19.17569 -19.10960 -10.30218 -10.25742 -10.20690
 Alpha  occ. eigenvalues --  -10.20422 -10.19390 -10.19131 -10.18793  -1.09111
 Alpha  occ. eigenvalues --   -1.00845  -0.83528  -0.78912  -0.72588  -0.69972
 Alpha  occ. eigenvalues --   -0.64561  -0.58820  -0.51881  -0.50545  -0.49221
 Alpha  occ. eigenvalues --   -0.46794  -0.44200  -0.42457  -0.41794  -0.41282
 Alpha  occ. eigenvalues --   -0.40737  -0.39628  -0.37731  -0.36941  -0.36677
 Alpha  occ. eigenvalues --   -0.32724  -0.28843  -0.25824  -0.25370
 Alpha virt. eigenvalues --    0.00917   0.02073   0.07873   0.10072   0.11862
 Alpha virt. eigenvalues --    0.13116   0.13960   0.15121   0.15496   0.16263
 Alpha virt. eigenvalues --    0.17333   0.17923   0.17985   0.21172   0.21514

 Mulliken charges:
               1
     1  C   -0.383647
     2  C    0.084080
     3  O   -0.239736
     4  C    0.410314
     5  O   -0.329211
     6  C   -0.448524
     7  C    0.282593
     8  C   -0.473143
     9  C   -0.163585
    10  H    0.126304
    11  H    0.119733
    12  H    0.135559
    13  H    0.106101
    14  H    0.147081
    15  H    0.145804
    16  H    0.129768
    17  H    0.130706
    18  H    0.125984
    19  H    0.093821
 Sum of Mulliken charges =   0.00000

 Dipole moment (field-independent basis, Debye):
    X=             -2.8651    Y=             -3.3208    Z=              0.0670  Tot=              4.3865
 Quadrupole moment (field-independent basis, Debye-Ang):
   XX=            -54.1430   YY=            -57.5859   ZZ=            -52.1366
   XY=             -7.2406   XZ=             -0.1731   YZ=              0.6651

  Exact polarizability:  89.055  -7.089  92.474  -2.314   4.815  56.659
 Approx polarizability: 118.659 -11.384 140.705  -6.034  11.487  88.288

                      1                      2                      3
                      A                      A                      A
 Frequencies --     21.3802                74.9503               142.8165
 Red. masses --      2.4883                 5.3343                 2.2204
 Frc consts  --      0.0007                 0.0177                 0.0267
 IR Inten    --      4.3135                 0.7636                 0.1033

                      4                      5                      6
                      A                      A                      A
 Frequencies --    196.3026               242.8197               291.3670
 Red. masses --      1.1442                 1.0510                 2.7218
 Frc consts  --      0.0260                 0.0365                 0.1361
 IR Inten    --      0.0412                 0.0204                 0.2285

                      7                      8                      9
                      A                      A                      A
 Frequencies --    339.7967               402.3148               434.2089
 Red. masses --      3.2806                 2.3971                 6.2506
 Frc consts  --      0.2232                 0.2286                 0.6943
 IR Inten    --      1.4660                 5.7466                 0.3199

                     10                     11                     12
                      A                      A                      A
 Frequencies --    472.2802               510.3879               555.5206
 Red. masses --      3.4559                 3.5649                 4.7614
 Frc consts  --      0.4542                 0.5471                 0.8657
 IR Inten    --      1.8100                 2.4431                 7.6738

                     13                     14                     15
                      A                      A                      A
 Frequencies --    583.4106               686.2351               809.6185
 Red. masses --      3.3274                 3.0333                 3.7106
 Frc consts  --      0.6673                 0.8416                 1.4330
 IR Inten    --      5.9466                 0.1769                12.6610

                     16                     17                     18
                      A                      A                      A
 Frequencies --    846.9591               903.4396               918.6817
 Red. masses --      1.3698                 2.7406                 3.0374
 Frc consts  --      0.5790                 1.3179                 1.5104
 IR Inten    --     11.9193                 6.6427                 0.5836

                     19                     20                     21
                      A                      A                      A
 Frequencies --    961.7260               989.3204              1019.1220
 Red. masses --      1.8177                 1.7407                 1.9068
 Frc consts  --      0.9905                 1.0038                 1.1668
 IR Inten    --      0.4592                 0.8617                 4.6421

                     22                     23                     24
                      A                      A                      A
 Frequencies --   1064.8797              1068.5183              1105.0780
 Red. masses --      2.0551                 1.6004                 2.2448
 Frc consts  --      1.3731                 1.0766                 1.6151
 IR Inten    --     33.2268                 3.7284                13.4865

                     25                     26                     27
                      A                      A                      A
 Frequencies --   1168.7800              1190.2884              1220.4968
 Red. masses --      2.4038                 1.8682                 1.2415
 Frc consts  --      1.9347                 1.5595                 1.0896
 IR Inten    --      7.8532                20.7542                23.5430

                     28                     29                     30
                      A                      A                      A
 Frequencies --   1233.2937              1316.3655              1349.4329
 Red. masses --      3.4411                 1.3908                 1.5139
 Frc consts  --      3.0837                 1.4200                 1.6243
 IR Inten    --    247.4651                10.5674                 8.3097

                     31                     32                     33
                      A                      A                      A
 Frequencies --   1387.4802              1400.3120              1404.1691
 Red. masses --      2.1217                 1.4735                 1.2642
 Frc consts  --      2.4065                 1.7024                 1.4685
 IR Inten    --      4.8492                58.1024                 3.8101

                     34                     35                     36
                      A                      A                      A
 Frequencies --   1416.3163              1448.1338              1477.4947
 Red. masses --      1.3045                 1.0800                 1.0442
 Frc consts  --      1.5417                 1.3344                 1.3431
 IR Inten    --      5.2951                 2.1164                 7.2421

                     37                     38                     39
                      A                      A                      A
 Frequencies --   1485.6722              1490.5390              1494.8490
 Red. masses --      1.0515                 1.0647                 1.0554
 Frc consts  --      1.3674                 1.3937                 1.3896
 IR Inten    --      3.2670                 4.7403                 3.3353

                     40                     41                     42
                      A                      A                      A
 Frequencies --   1769.4115              1838.3987              3003.1351
 Red. masses --      7.5170                12.7233                 1.0832
 Frc consts  --     13.8660                25.3355                 5.7560
 IR Inten    --      8.3704               348.4928                31.0403

                     43                     44                     45
                      A                      A                      A
 Frequencies --   3017.7846              3023.8493              3043.1943
 Red. masses --      1.0413                 1.0600                 1.0341
 Frc consts  --      5.5871                 5.7107                 5.6428
 IR Inten    --     18.5951                23.1700                14.5779

                     46                     47                     48
                      A                      A                      A
 Frequencies --   3048.9095              3066.1638              3116.6974
 Red. masses --      1.0955                 1.0986                 1.0994
 Frc consts  --      6.0002                 6.0852                 6.2920
 IR Inten    --      5.8347                17.9084                17.1472

                     49                     50                     51
                      A                      A                      A
 Frequencies --   3118.9011              3129.3389              3161.0479
 Red. masses --      1.1018                 1.1032                 1.0897
 Frc consts  --      6.3148                 6.3650                 6.4154
 IR Inten    --     19.5014                18.2660                12.1496

 - Thermochemistry -
 -------------------
 Temperature   298.150 Kelvin.  Pressure   1.00000 Atm.
 Atom     1 has atomic number  6 and mass  12.00000

 Molecular mass:   126.06808 amu.
 Principal axes and moments of inertia in atomic units:
                           1         2         3
     Eigenvalues --   915.313111103.822771883.43961
           X            0.97440  -0.22480   0.00338
           Y            0.22482   0.97439  -0.00364
           Z           -0.00248   0.00431   0.99999
 This molecule is an asymmetric top.
 Rotational symmetry number  1.
 Warning -- assumption of classical behavior for rotation
           may cause significant error
 Rotational temperatures (Kelvin)      0.09463     0.07847     0.04599
 Rotational constants (GHZ):           1.97172     1.63499     0.95822
 Zero-point vibrational energy     415472.6 (Joules/Mol)
                                   99.30033 (Kcal/Mol)
 Warning -- explicit consideration of  13 degrees of freedom as
           vibrations may cause significant error
 Vibrational temperatures:     30.76   107.84   205.48   282.44   349.36
          (Kelvin)            419.21   488.89   578.84   624.73   679.51
                              734.33   799.27   839.40   987.34  1164.86
                             1218.58  1299.85  1321.78  1383.71  1423.41
                             1466.29  1532.12  1537.36  1589.96  1681.61
                             1712.56  1756.02  1774.43  1893.95  1941.53
                             1996.27  2014.73  2020.28  2037.76  2083.54
                             2125.78  2137.55  2144.55  2150.75  2545.79
                             2645.04  4320.84  4341.91  4350.64  4378.47
                             4386.70  4411.52  4484.23  4487.40  4502.42
                             4548.04

 Zero-point correction=                           0.158245 (Hartree/Particle)
 Thermal correction to Energy=                    0.167388
 Thermal correction to Enthalpy=                  0.168332
 Thermal correction to Gibbs Free Energy=         0.123031
 Sum of electronic and zero-point Energies=           -423.085354
 Sum of electronic and thermal Energies=              -423.076211
 Sum of electronic and thermal Enthalpies=            -423.075267
 Sum of electronic and thermal Free Energies=         -423.120568

                     E (Thermal)             CV                S
                      KCal/Mol        Cal/Mol-Kelvin    Cal/Mol-Kelvin
 Total                  105.038             33.377             95.345
 Electronic               0.000              0.000              0.000
 Translational            0.889              2.981             40.409
 Rotational               0.889              2.981             29.033
 Vibrational            103.260             27.416             25.904
 Vibration     1          0.593              1.985              6.502
 Vibration     2          0.599              1.966              4.019
 Vibration     3          0.616              1.910              2.766
 Vibration     4          0.636              1.845              2.167
 Vibration     5          0.659              1.775              1.782
 Vibration     6          0.687              1.690              1.466
 Vibration     7          0.720              1.596              1.213
 Vibration     8          0.768              1.465              0.954
 Vibration     9          0.795              1.396              0.845
 Vibration    10          0.829              1.312              0.731
 Vibration    11          0.866              1.227              0.633
 Vibration    12          0.911              1.128              0.533
 Vibration    13          0.940              1.067              0.479

 Optimization completed.
    -- Stationary point found.
 Normal termination of Gaussian 09 at Tue Jan 28 01:18:40 2020.
