 Gaussian 09, Revision D.01,
 Gaussian 09:  ES64L-G09RevD.01 24-Apr-2013

 -----------------------------
 # b3lyp 6-31G(2df,p) opt Freq
 -----------------------------

 -----
 titel
 -----
 Symbolic Z-matrix:
 Charge =  0 Multiplicity = 1

 SCF Done:  E(RB3LYP) =  -423.190666364     A.U. after   14 cycles
 Optimization completed.
    -- Stationary point found.
 Normal termination of Gaussian 09 at Mon Jan 27 12:54:12 2020.

 ----------------------------------------------------------------------
 #N Geom=AllCheck Guess=TCheck SCRF=Check GenChk RB3LYP/6-31G(2df,p) Fr
 eq
 ----------------------------------------------------------------------

 Structure from the checkpoint file:  "/scratch/puck/g09_5d943872-42aa-4d71-8445-a6bd44e76d31/Gau-99505.chk"
 -----
 titel
 -----
 Charge =  0 Multiplicity = 1

                         Standard orientation:
 ---------------------------------------------------------------------
 Center     Atomic      Atomic             Coordinates (Angstroms)
 Number     Number       Type             X           Y           Z
 ---------------------------------------------------------------------
      1          8           0        1.997365    0.062498   -1.340453
      2          6           0        1.255227   -0.025030   -0.407325
      3          6           0        0.777631    0.944422    0.691903
      4          6           0        0.500312   -0.323004    1.560928
      5          6           0        0.503792   -1.213922    0.280135
      6          8           0       -0.747644   -1.532955   -0.290367
      7          6           0       -1.786608   -0.565250   -0.194093
      8          6           0       -1.424992    0.841096   -0.688399
      9          6           0       -0.511893    1.665675    0.242735
     10          1           0        1.512875    1.659755    1.067598
     11          1           0        1.347671   -0.573506    2.203517
     12          1           0       -0.408714   -0.320042    2.163377
     13          1           0        1.060910   -2.152942    0.324895
     14          1           0       -2.588222   -0.975247   -0.815052
     15          1           0       -2.170685   -0.513368    0.836650
     16          1           0       -0.966261    0.750116   -1.680605
     17          1           0       -2.361567    1.392950   -0.830396
     18          1           0       -0.233070    2.588163   -0.277159
     19          1           0       -1.071511    1.963846    1.138432
 ---------------------------------------------------------------------

 SCF Done:  E(RB3LYP) =  -423.190666364     A.U. after    1 cycles

 The electronic state is 1-A.
 Alpha  occ. eigenvalues --  -19.14975 -19.14103 -10.26422 -10.23952 -10.23532
 Alpha  occ. eigenvalues --  -10.19968 -10.19948 -10.19419 -10.19258  -1.05175
 Alpha  occ. eigenvalues --   -1.03593  -0.84919  -0.79410  -0.69688  -0.67563
 Alpha  occ. eigenvalues --   -0.62970  -0.56780  -0.53186  -0.51239  -0.47020
 Alpha  occ. eigenvalues --   -0.46319  -0.46009  -0.43530  -0.42305  -0.41172
 Alpha  occ. eigenvalues --   -0.40247  -0.37659  -0.36786  -0.35181  -0.33598
 Alpha  occ. eigenvalues --   -0.32539  -0.31040  -0.27918  -0.22438
 Alpha virt. eigenvalues --   -0.02745   0.07831   0.10059   0.11175   0.12453
 Alpha virt. eigenvalues --    0.13292   0.14126   0.14701   0.16474   0.16842
 Alpha virt. eigenvalues --    0.17406   0.18822   0.19810   0.21010   0.21400

 Mulliken charges:
               1
     1  O   -0.305262
     2  C    0.389567
     3  C   -0.130404
     4  C   -0.282610
     5  C    0.020251
     6  O   -0.258868
     7  C   -0.067796
     8  C   -0.230067
     9  C   -0.212768
    10  H    0.089657
    11  H    0.113951
    12  H    0.111458
    13  H    0.102825
    14  H    0.115292
    15  H    0.091996
    16  H    0.129035
    17  H    0.102519
    18  H    0.116100
    19  H    0.105121
 Sum of Mulliken charges =   0.00000

 Dipole moment (field-independent basis, Debye):
    X=             -1.8021    Y=              1.2285    Z=              2.3546  Tot=              3.2095
 Quadrupole moment (field-independent basis, Debye-Ang):
   XX=            -54.2262   YY=            -53.9000   ZZ=            -54.8861
   XY=             -2.1860   XZ=              5.0993   YZ=             -1.0071

  Exact polarizability:  79.347  -1.254  73.508  -0.164  -0.294  70.950
 Approx polarizability: 114.151  -0.469 105.917  -7.740   1.111 111.585

                      1                      2                      3
                      A                      A                      A
 Frequencies --    117.0682               195.6905               223.0534
 Red. masses --      6.0896                 3.5038                 2.5377
 Frc consts  --      0.0492                 0.0791                 0.0744
 IR Inten    --      2.8215                 4.0650                 1.1809

                      4                      5                      6
                      A                      A                      A
 Frequencies --    289.2357               352.9521               376.5823
 Red. masses --      3.0015                 2.3482                 4.3900
 Frc consts  --      0.1479                 0.1724                 0.3668
 IR Inten    --      2.0508                 1.1665                 1.7150

                      7                      8                      9
                      A                      A                      A
 Frequencies --    423.1873               478.9695               534.7380
 Red. masses --      2.7724                 3.2655                 1.7468
 Frc consts  --      0.2925                 0.4414                 0.2943
 IR Inten    --      2.0522                 3.1050                 3.1792

                     10                     11                     12
                      A                      A                      A
 Frequencies --    622.8608               740.4807               760.0628
 Red. masses --      3.1625                 4.2437                 2.6618
 Frc consts  --      0.7229                 1.3710                 0.9060
 IR Inten    --      3.0206                 3.0529                 2.0168

                     13                     14                     15
                      A                      A                      A
 Frequencies --    814.4985               844.4515               873.3231
 Red. masses --      2.8938                 2.3457                 1.7485
 Frc consts  --      1.1311                 0.9855                 0.7857
 IR Inten    --      9.2407                 0.8529                 3.7346

                     16                     17                     18
                      A                      A                      A
 Frequencies --    888.1678               925.1060               946.6860
 Red. masses --      2.6069                 2.8592                 1.9542
 Frc consts  --      1.2116                 1.4417                 1.0319
 IR Inten    --     10.4347                19.9131                 2.2241

                     19                     20                     21
                      A                      A                      A
 Frequencies --   1018.9665              1040.7799              1049.0642
 Red. masses --      2.5496                 2.4602                 2.4781
 Frc consts  --      1.5597                 1.5701                 1.6068
 IR Inten    --      7.7217                14.3330                16.7140

                     22                     23                     24
                      A                      A                      A
 Frequencies --   1068.8860              1098.8136              1131.2305
 Red. masses --      1.7644                 1.8396                 1.7104
 Frc consts  --      1.1877                 1.3087                 1.2896
 IR Inten    --     19.7760                 7.2378                23.7636

                     25                     26                     27
                      A                      A                      A
 Frequencies --   1151.4096              1184.4883              1203.7942
 Red. masses --      1.7998                 1.8716                 1.7441
 Frc consts  --      1.4059                 1.5472                 1.4891
 IR Inten    --      3.5266                37.7468                44.0481

                     28                     29                     30
                      A                      A                      A
 Frequencies --   1236.4545              1257.3174              1261.6145
 Red. masses --      1.5447                 1.3641                 1.5495
 Frc consts  --      1.3914                 1.2706                 1.4531
 IR Inten    --      6.1026                 0.3433                 4.2991

                     31                     32                     33
                      A                      A                      A
 Frequencies --   1311.8753              1314.4892              1362.4556
 Red. masses --      1.3396                 1.1572                 1.2702
 Frc consts  --      1.3583                 1.1781                 1.3892
 IR Inten    --      3.3521                 5.5669                 2.7470

                     34                     35                     36
                      A                      A                      A
 Frequencies --   1374.2025              1384.9454              1414.4034
 Red. masses --      1.3515                 1.4068                 1.2945
 Frc consts  --      1.5037                 1.5898                 1.5257
 IR Inten    --      2.1750                 1.2651                 9.1512

                     37                     38                     39
                      A                      A                      A
 Frequencies --   1472.2241              1477.5463              1485.4057
 Red. masses --      1.0947                 1.0883                 1.0914
 Frc consts  --      1.3980                 1.3998                 1.4188
 IR Inten    --      1.5231                 8.8061                 2.3777

                     40                     41                     42
                      A                      A                      A
 Frequencies --   1511.2918              1889.8761              2984.7002
 Red. masses --      1.0845                12.3434                 1.0709
 Frc consts  --      1.4594                25.9748                 5.6210
 IR Inten    --      3.0883               223.6766                45.5080

                     43                     44                     45
                      A                      A                      A
 Frequencies --   3024.8854              3031.7910              3069.3159
 Red. masses --      1.0633                 1.0615                 1.0973
 Frc consts  --      5.7324                 5.7487                 6.0908
 IR Inten    --     23.7105                13.4775                20.2995

                     46                     47                     48
                      A                      A                      A
 Frequencies --   3073.6389              3079.5260              3085.5433
 Red. masses --      1.0678                 1.0999                 1.0909
 Frc consts  --      5.9438                 6.1459                 6.1191
 IR Inten    --      7.3229                36.7998                41.0044

                     49                     50                     51
                      A                      A                      A
 Frequencies --   3086.6252              3091.7354              3134.3316
 Red. masses --      1.0878                 1.0846                 1.1054
 Frc consts  --      6.1063                 6.1082                 6.3979
 IR Inten    --     42.6125                12.0921                16.6957

 - Thermochemistry -
 -------------------
 Temperature   298.150 Kelvin.  Pressure   1.00000 Atm.
 Atom     1 has atomic number  8 and mass  15.99491

 Molecular mass:   126.06808 amu.
 Principal axes and moments of inertia in atomic units:
                           1         2         3
     Eigenvalues --   808.246721025.831941181.13647
           X            0.99639  -0.05608   0.06380
           Y            0.05837   0.99770  -0.03461
           Z           -0.06171   0.03821   0.99736
 This molecule is an asymmetric top.
 Rotational symmetry number  1.
 Warning -- assumption of classical behavior for rotation
           may cause significant error
 Rotational temperatures (Kelvin)      0.10716     0.08443     0.07333
 Rotational constants (GHZ):           2.23291     1.75930     1.52797
 Zero-point vibrational energy     423303.0 (Joules/Mol)
                                  101.17185 (Kcal/Mol)
 Warning -- explicit consideration of   9 degrees of freedom as
           vibrations may cause significant error
 Vibrational temperatures:    168.43   281.55   320.92   416.15   507.82
          (Kelvin)            541.82   608.87   689.13   769.37   896.16
                             1065.39  1093.56  1171.88  1214.98  1256.52
                             1277.87  1331.02  1362.07  1466.06  1497.45
                             1509.37  1537.89  1580.95  1627.59  1656.62
                             1704.21  1731.99  1778.98  1809.00  1815.18
                             1887.49  1891.25  1960.27  1977.17  1992.63
                             2035.01  2118.20  2125.86  2137.16  2174.41
                             2719.11  4294.31  4352.13  4362.07  4416.06
                             4422.28  4430.75  4439.40  4440.96  4448.31
                             4509.60

 Zero-point correction=                           0.161228 (Hartree/Particle)
 Thermal correction to Energy=                    0.168737
 Thermal correction to Enthalpy=                  0.169681
 Thermal correction to Gibbs Free Energy=         0.129499
 Sum of electronic and zero-point Energies=           -423.029439
 Sum of electronic and thermal Energies=              -423.021930
 Sum of electronic and thermal Enthalpies=            -423.020986
 Sum of electronic and thermal Free Energies=         -423.061167

                     E (Thermal)             CV                S
                      KCal/Mol        Cal/Mol-Kelvin    Cal/Mol-Kelvin
 Total                  105.884             29.948             84.569
 Electronic               0.000              0.000              0.000
 Translational            0.889              2.981             40.409
 Rotational               0.889              2.981             28.373
 Vibrational            104.106             23.987             15.788
 Vibration     1          0.608              1.935              3.148
 Vibration     2          0.636              1.846              2.173
 Vibration     3          0.649              1.806              1.934
 Vibration     4          0.686              1.694              1.478
 Vibration     5          0.729              1.569              1.153
 Vibration     6          0.747              1.520              1.053
 Vibration     7          0.785              1.420              0.881
 Vibration     8          0.835              1.297              0.713
 Vibration     9          0.890              1.173              0.577

 Normal termination of Gaussian 09 at Mon Jan 27 13:39:35 2020.
