 Gaussian 09, Revision D.01,
 Gaussian 09:  ES64L-G09RevD.01 24-Apr-2013

 -----------------------------
 # b3lyp 6-31G(2df,p) opt Freq
 -----------------------------

 -----
 titel
 -----
 Symbolic Z-matrix:
 Charge =  0 Multiplicity = 1

 SCF Done:  E(RB3LYP) =  -423.202637840     A.U. after   14 cycles
 Optimization completed.
    -- Stationary point found.
 Normal termination of Gaussian 09 at Tue Jan 28 14:08:13 2020.

 ----------------------------------------------------------------------
 #N Geom=AllCheck Guess=TCheck SCRF=Check GenChk RB3LYP/6-31G(2df,p) Fr
 eq
 ----------------------------------------------------------------------

 Structure from the checkpoint file:  "/scratch/puck/g09_a69fc3ae-50c5-4e5d-92a3-4473f763ddef/Gau-147253.chk"
 -----
 titel
 -----
 Charge =  0 Multiplicity = 1

                         Standard orientation:
 ---------------------------------------------------------------------
 Center     Atomic      Atomic             Coordinates (Angstroms)
 Number     Number       Type             X           Y           Z
 ---------------------------------------------------------------------
      1          8           0       -2.972297    0.820903    0.234202
      2          6           0       -2.331108   -0.420306   -0.008408
      3          6           0       -0.849152   -0.410231    0.298540
      4          6           0        0.101966   -1.154404   -0.582483
      5          6           0        1.439698   -1.577614    0.027876
      6          6           0        2.030409   -0.297942    0.655682
      7          6           0        1.333932    0.873323   -0.062505
      8          8           0        1.774152    1.991030   -0.167116
      9          6           0        0.058660    0.365035   -0.653465
     10          1           0       -2.848767    1.045789    1.161925
     11          1           0       -2.813190   -1.236032    0.554135
     12          1           0       -2.486794   -0.626289   -1.072769
     13          1           0       -0.611828   -0.358268    1.360430
     14          1           0       -0.307667   -1.748178   -1.392691
     15          1           0        1.324994   -2.393247    0.749030
     16          1           0        2.097328   -1.940941   -0.768658
     17          1           0        1.816728   -0.224483    1.728736
     18          1           0        3.112543   -0.208857    0.545574
     19          1           0       -0.404618    0.927881   -1.453833
 ---------------------------------------------------------------------

 SCF Done:  E(RB3LYP) =  -423.202637840     A.U. after    1 cycles

 The electronic state is 1-A.
 Alpha  occ. eigenvalues --  -19.13983 -19.12136 -10.26361 -10.23908 -10.20995
 Alpha  occ. eigenvalues --  -10.20904 -10.19906 -10.19824 -10.19189  -1.03294
 Alpha  occ. eigenvalues --   -1.02170  -0.89742  -0.77836  -0.70306  -0.68700
 Alpha  occ. eigenvalues --   -0.61358  -0.57751  -0.54451  -0.51635  -0.47733
 Alpha  occ. eigenvalues --   -0.47162  -0.45467  -0.43128  -0.41798  -0.40597
 Alpha  occ. eigenvalues --   -0.40159  -0.38400  -0.36364  -0.34980  -0.33988
 Alpha  occ. eigenvalues --   -0.30446  -0.29086  -0.27317  -0.23575
 Alpha virt. eigenvalues --   -0.01023   0.06971   0.08361   0.09005   0.11807
 Alpha virt. eigenvalues --    0.12355   0.13794   0.14981   0.16014   0.16401
 Alpha virt. eigenvalues --    0.17716   0.19091   0.19903   0.21536   0.22243

 Mulliken charges:
               1
     1  O   -0.409735
     2  C   -0.091035
     3  C   -0.055779
     4  C   -0.062362
     5  C   -0.236625
     6  C   -0.340287
     7  C    0.411788
     8  O   -0.330380
     9  C   -0.143172
    10  H    0.283766
    11  H    0.093493
    12  H    0.110175
    13  H    0.084053
    14  H    0.094201
    15  H    0.106044
    16  H    0.114134
    17  H    0.128559
    18  H    0.130959
    19  H    0.112204
 Sum of Mulliken charges =   0.00000

 Dipole moment (field-independent basis, Debye):
    X=             -0.4966    Y=             -3.5444    Z=              1.2426  Tot=              3.7886
 Quadrupole moment (field-independent basis, Debye-Ang):
   XX=            -58.1848   YY=            -59.3913   ZZ=            -48.4254
   XY=             -3.5432   XZ=             -2.1297   YZ=              2.2961

  Exact polarizability:  86.632   2.251  77.766   1.148  -0.210  64.238
 Approx polarizability: 112.313   7.563 122.564  -0.650  -1.927 100.968

                      1                      2                      3
                      A                      A                      A
 Frequencies --     65.1619               119.7658               140.0259
 Red. masses --      3.1640                 4.9421                 2.6547
 Frc consts  --      0.0079                 0.0418                 0.0307
 IR Inten    --      2.3351                 4.1178                 0.3866

                      4                      5                      6
                      A                      A                      A
 Frequencies --    199.3031               241.2528               295.3125
 Red. masses --      2.5171                 1.5651                 1.5552
 Frc consts  --      0.0589                 0.0537                 0.0799
 IR Inten    --     13.9147                33.1539                80.5729

                      7                      8                      9
                      A                      A                      A
 Frequencies --    359.0745               438.8920               497.4491
 Red. masses --      3.2343                 4.7190                 2.8833
 Frc consts  --      0.2457                 0.5356                 0.4204
 IR Inten    --      0.5905                16.3798                 0.5462

                     10                     11                     12
                      A                      A                      A
 Frequencies --    540.1971               629.9774               654.2067
 Red. masses --      3.3216                 2.6723                 5.1210
 Frc consts  --      0.5711                 0.6249                 1.2913
 IR Inten    --      4.5728                 0.2781                 2.7859

                     13                     14                     15
                      A                      A                      A
 Frequencies --    776.4595               814.1129               833.6194
 Red. masses --      3.0429                 2.0376                 2.0596
 Frc consts  --      1.0809                 0.7957                 0.8433
 IR Inten    --      2.8610                 1.5432                 6.8768

                     16                     17                     18
                      A                      A                      A
 Frequencies --    909.5959               911.7328               952.4749
 Red. masses --      2.1791                 2.2017                 2.2568
 Frc consts  --      1.0622                 1.0783                 1.2063
 IR Inten    --      4.9869                26.4648                15.6965

                     19                     20                     21
                      A                      A                      A
 Frequencies --    971.4055              1015.2100              1042.1269
 Red. masses --      1.7074                 2.0683                 1.9718
 Frc consts  --      0.9493                 1.2560                 1.2617
 IR Inten    --      8.3676                 8.7215                 3.3813

                     22                     23                     24
                      A                      A                      A
 Frequencies --   1061.3145              1069.0570              1091.7154
 Red. masses --      2.9592                 1.5535                 1.2835
 Frc consts  --      1.9639                 1.0461                 0.9013
 IR Inten    --     75.8790                27.0616                 1.9834

                     25                     26                     27
                      A                      A                      A
 Frequencies --   1115.9285              1161.8986              1173.0473
 Red. masses --      2.2562                 1.2752                 1.3344
 Frc consts  --      1.6554                 1.0143                 1.0818
 IR Inten    --     23.9116                24.6297                 9.9885

                     28                     29                     30
                      A                      A                      A
 Frequencies --   1186.1217              1228.0790              1239.6410
 Red. masses --      2.3947                 1.4398                 1.6014
 Frc consts  --      1.9850                 1.2794                 1.4499
 IR Inten    --     58.2173                 0.6423                 5.7531

                     31                     32                     33
                      A                      A                      A
 Frequencies --   1282.2248              1300.5465              1319.9161
 Red. masses --      1.2793                 1.7458                 1.5158
 Frc consts  --      1.2392                 1.7398                 1.5559
 IR Inten    --      8.4947                 8.1577                 9.0136

                     34                     35                     36
                      A                      A                      A
 Frequencies --   1344.0465              1377.1685              1422.1578
 Red. masses --      1.3719                 1.2843                 1.3213
 Frc consts  --      1.4601                 1.4351                 1.5745
 IR Inten    --     13.1061                 5.4501                39.5382

                     37                     38                     39
                      A                      A                      A
 Frequencies --   1443.9216              1462.5283              1500.4776
 Red. masses --      2.1347                 1.0772                 1.0889
 Frc consts  --      2.6223                 1.3576                 1.4445
 IR Inten    --     14.8029                 7.6161                 1.9902

                     40                     41                     42
                      A                      A                      A
 Frequencies --   1502.4042              1833.6074              2975.7311
 Red. masses --      1.0994                12.2800                 1.0702
 Frc consts  --      1.4621                24.3255                 5.5833
 IR Inten    --      0.1274               280.6285                64.4646

                     43                     44                     45
                      A                      A                      A
 Frequencies --   3043.9126              3047.1931              3069.2929
 Red. masses --      1.0622                 1.0670                 1.0915
 Frc consts  --      5.7984                 5.8375                 6.0582
 IR Inten    --     34.3943                12.2884                14.1445

                     46                     47                     48
                      A                      A                      A
 Frequencies --   3082.5468              3112.2724              3119.7284
 Red. masses --      1.1032                 1.0881                 1.0954
 Frc consts  --      6.1760                 6.2097                 6.2816
 IR Inten    --     19.2701                20.7051                13.5460

                     49                     50                     51
                      A                      A                      A
 Frequencies --   3168.2892              3202.8076              3816.9588
 Red. masses --      1.0897                 1.0918                 1.0663
 Frc consts  --      6.4448                 6.5986                 9.1526
 IR Inten    --     13.8076                 2.3627                19.1287

 - Thermochemistry -
 -------------------
 Temperature   298.150 Kelvin.  Pressure   1.00000 Atm.
 Atom     1 has atomic number  8 and mass  15.99491

 Molecular mass:   126.06808 amu.
 Principal axes and moments of inertia in atomic units:
                           1         2         3
     Eigenvalues --   651.079221549.317551985.96376
           X            0.99972  -0.02293   0.00569
           Y            0.02289   0.99971   0.00721
           Z           -0.00585  -0.00707   0.99996
 This molecule is an asymmetric top.
 Rotational symmetry number  1.
 Warning -- assumption of classical behavior for rotation
           may cause significant error
 Rotational temperatures (Kelvin)      0.13303     0.05590     0.04361
 Rotational constants (GHZ):           2.77192     1.16486     0.90875
 Zero-point vibrational energy     419661.3 (Joules/Mol)
                                  100.30146 (Kcal/Mol)
 Warning -- explicit consideration of  10 degrees of freedom as
           vibrations may cause significant error
 Vibrational temperatures:     93.75   172.32   201.47   286.75   347.11
          (Kelvin)            424.89   516.63   631.47   715.72   777.22
                              906.40   941.26  1117.15  1171.33  1199.39
                             1308.70  1311.78  1370.40  1397.63  1460.66
                             1499.39  1526.99  1538.13  1570.73  1605.57
                             1671.71  1687.75  1706.56  1766.93  1783.56
                             1844.83  1871.19  1899.06  1933.78  1981.44
                             2046.17  2077.48  2104.25  2158.85  2161.62
                             2638.15  4281.41  4379.51  4384.23  4416.02
                             4435.09  4477.86  4488.59  4558.46  4608.12
                             5491.75

 Zero-point correction=                           0.159841 (Hartree/Particle)
 Thermal correction to Energy=                    0.168402
 Thermal correction to Enthalpy=                  0.169346
 Thermal correction to Gibbs Free Energy=         0.126131
 Sum of electronic and zero-point Energies=           -423.042797
 Sum of electronic and thermal Energies=              -423.034236
 Sum of electronic and thermal Enthalpies=            -423.033292
 Sum of electronic and thermal Free Energies=         -423.076507

                     E (Thermal)             CV                S
                      KCal/Mol        Cal/Mol-Kelvin    Cal/Mol-Kelvin
 Total                  105.674             32.093             90.953
 Electronic               0.000              0.000              0.000
 Translational            0.889              2.981             40.409
 Rotational               0.889              2.981             29.084
 Vibrational            103.896             26.132             21.461
 Vibration     1          0.597              1.971              4.294
 Vibration     2          0.609              1.933              3.104
 Vibration     3          0.615              1.913              2.804
 Vibration     4          0.637              1.841              2.140
 Vibration     5          0.658              1.777              1.794
 Vibration     6          0.690              1.682              1.443
 Vibration     7          0.734              1.557              1.126
 Vibration     8          0.799              1.385              0.830
 Vibration     9          0.853              1.256              0.665
 Vibration    10          0.895              1.161              0.565

 Optimization completed.
    -- Stationary point found.
 Normal termination of Gaussian 09 at Tue Jan 28 14:48:49 2020.
