 Gaussian 09, Revision D.01,
 Gaussian 09:  ES64L-G09RevD.01 24-Apr-2013

 -----------------------------
 # b3lyp 6-31G(2df,p) opt Freq
 -----------------------------

 -----
 titel
 -----
 Symbolic Z-matrix:
 Charge =  0 Multiplicity = 1

 SCF Done:  E(RB3LYP) =  -423.166516274     A.U. after   14 cycles
 Optimization completed.
    -- Stationary point found.
 Normal termination of Gaussian 09 at Mon Jan 27 15:36:02 2020.

 ----------------------------------------------------------------------
 #N Geom=AllCheck Guess=TCheck SCRF=Check GenChk RB3LYP/6-31G(2df,p) Fr
 eq
 ----------------------------------------------------------------------

 Structure from the checkpoint file:  "/scratch/puck/g09_9cfac04a-d16a-425a-87eb-0d607ba25039/Gau-45493.chk"
 -----
 titel
 -----
 Charge =  0 Multiplicity = 1

                         Standard orientation:
 ---------------------------------------------------------------------
 Center     Atomic      Atomic             Coordinates (Angstroms)
 Number     Number       Type             X           Y           Z
 ---------------------------------------------------------------------
      1          6           0        2.287504   -1.278973   -0.141428
      2          6           0        1.512485    0.024242   -0.338227
      3          8           0        2.309818    1.147448    0.029165
      4          6           0        0.165416    0.049336    0.417219
      5          6           0       -0.575317    1.364719    0.245320
      6          6           0       -1.776579    1.208758   -0.317113
      7          6           0       -2.053189   -0.239630   -0.545821
      8          8           0       -2.066717   -1.017386    0.676160
      9          6           0       -0.860255   -0.971923   -0.084564
     10          1           0        2.482032   -1.456582    0.923996
     11          1           0        1.742529   -2.146000   -0.526517
     12          1           0        3.248022   -1.220130   -0.660138
     13          1           0        1.312768    0.172016   -1.406514
     14          1           0        2.584084    1.023064    0.944996
     15          1           0        0.375844   -0.135743    1.482057
     16          1           0       -0.140975    2.302773    0.566914
     17          1           0       -2.481325    1.997620   -0.548375
     18          1           0       -2.723759   -0.595636   -1.321891
     19          1           0       -0.544423   -1.921052   -0.509434
 ---------------------------------------------------------------------

 SCF Done:  E(RB3LYP) =  -423.166516273     A.U. after    1 cycles

 The electronic state is 1-A.
 Alpha  occ. eigenvalues --  -19.14527 -19.13911 -10.23902 -10.23479 -10.23421
 Alpha  occ. eigenvalues --  -10.19540 -10.18615 -10.18372 -10.18298  -1.06604
 Alpha  occ. eigenvalues --   -1.02166  -0.82455  -0.76319  -0.70538  -0.65940
 Alpha  occ. eigenvalues --   -0.62465  -0.57535  -0.54853  -0.53169  -0.47957
 Alpha  occ. eigenvalues --   -0.46859  -0.43905  -0.43562  -0.40648  -0.39692
 Alpha  occ. eigenvalues --   -0.39138  -0.38700  -0.36308  -0.35093  -0.33133
 Alpha  occ. eigenvalues --   -0.30551  -0.27801  -0.25696  -0.24435
 Alpha virt. eigenvalues --    0.00110   0.07179   0.10112   0.10342   0.12269
 Alpha virt. eigenvalues --    0.12645   0.13847   0.15348   0.15808   0.16558
 Alpha virt. eigenvalues --    0.17531   0.17979   0.19843   0.20869   0.22386

 Mulliken charges:
               1
     1  C   -0.412052
     2  C    0.130125
     3  O   -0.430428
     4  C   -0.096444
     5  C   -0.077497
     6  C   -0.096879
     7  C    0.000317
     8  O   -0.262934
     9  C    0.022699
    10  H    0.109968
    11  H    0.122873
    12  H    0.128090
    13  H    0.094186
    14  H    0.276750
    15  H    0.086507
    16  H    0.111192
    17  H    0.102828
    18  H    0.096703
    19  H    0.093994
 Sum of Mulliken charges =   0.00000

 Dipole moment (field-independent basis, Debye):
    X=              1.0144    Y=             -0.3413    Z=             -0.3585  Tot=              1.1287
 Quadrupole moment (field-independent basis, Debye-Ang):
   XX=            -54.8329   YY=            -53.8380   ZZ=            -51.9086
   XY=             -5.1415   XZ=              7.4079   YZ=              3.3031

  Exact polarizability:  91.287  -3.140  75.242   8.961   1.525  60.455
 Approx polarizability: 129.647   1.699 109.101  14.876  -0.588 100.163

                      1                      2                      3
                      A                      A                      A
 Frequencies --     71.4520               125.5097               179.7077
 Red. masses --      3.4485                 3.6892                 3.8899
 Frc consts  --      0.0104                 0.0342                 0.0740
 IR Inten    --      2.3014                 3.3788                 1.3914

                      4                      5                      6
                      A                      A                      A
 Frequencies --    237.6105               296.1846               325.7982
 Red. masses --      1.0863                 1.1563                 3.0344
 Frc consts  --      0.0361                 0.0598                 0.1898
 IR Inten    --      0.7031                75.0664                28.4919

                      7                      8                      9
                      A                      A                      A
 Frequencies --    366.7696               409.1452               435.7089
 Red. masses --      3.7993                 4.2462                 2.8761
 Frc consts  --      0.3011                 0.4188                 0.3217
 IR Inten    --      8.6813                 1.1419                 8.7009

                     10                     11                     12
                      A                      A                      A
 Frequencies --    467.6130               588.9333               729.4245
 Red. masses --      2.6775                 3.5583                 2.7998
 Frc consts  --      0.3449                 0.7272                 0.8777
 IR Inten    --      7.8218                11.9910                 8.4550

                     13                     14                     15
                      A                      A                      A
 Frequencies --    755.6139               792.4738               848.0615
 Red. masses --      2.6320                 3.3441                 4.1885
 Frc consts  --      0.8854                 1.2374                 1.7748
 IR Inten    --      8.6143                 4.4733                27.6889

                     16                     17                     18
                      A                      A                      A
 Frequencies --    856.6857               874.8865               912.3710
 Red. masses --      2.2254                 1.9338                 2.3609
 Frc consts  --      0.9623                 0.8721                 1.1579
 IR Inten    --     26.5591                16.8288                 3.7268

                     19                     20                     21
                      A                      A                      A
 Frequencies --    949.3717               970.0903              1002.8405
 Red. masses --      1.5899                 1.5308                 2.4258
 Frc consts  --      0.8443                 0.8488                 1.4374
 IR Inten    --      7.2960                 1.2317                 8.4167

                     22                     23                     24
                      A                      A                      A
 Frequencies --   1027.5699              1034.6654              1060.0352
 Red. masses --      2.3274                 1.8946                 1.7092
 Frc consts  --      1.4479                 1.1950                 1.1316
 IR Inten    --     37.6297                 4.9013                41.3039

                     25                     26                     27
                      A                      A                      A
 Frequencies --   1095.5970              1115.6062              1136.2538
 Red. masses --      1.6482                 1.8351                 1.1799
 Frc consts  --      1.1656                 1.3457                 0.8975
 IR Inten    --     10.1262                16.3358                 0.8972

                     28                     29                     30
                      A                      A                      A
 Frequencies --   1150.1197              1216.1654              1253.8648
 Red. masses --      2.3762                 1.2753                 1.6173
 Frc consts  --      1.8519                 1.1113                 1.4981
 IR Inten    --     41.3783                 5.5006                 5.1040

                     31                     32                     33
                      A                      A                      A
 Frequencies --   1269.7696              1298.6663              1323.9470
 Red. masses --      1.5116                 1.3089                 1.4648
 Frc consts  --      1.4360                 1.3006                 1.5128
 IR Inten    --      5.9964                 3.2722                 5.8029

                     34                     35                     36
                      A                      A                      A
 Frequencies --   1365.2605              1374.1937              1404.5930
 Red. masses --      1.3963                 1.8474                 1.5341
 Frc consts  --      1.5334                 2.0555                 1.7832
 IR Inten    --      7.8701                 6.3972                 7.6211

                     37                     38                     39
                      A                      A                      A
 Frequencies --   1407.8322              1422.7296              1490.6421
 Red. masses --      1.9014                 1.2399                 1.0574
 Frc consts  --      2.2204                 1.4787                 1.3843
 IR Inten    --     18.2529                41.5137                 1.5177

                     40                     41                     42
                      A                      A                      A
 Frequencies --   1495.4866              1658.4711              2991.5671
 Red. masses --      1.0492                 6.4117                 1.0809
 Frc consts  --      1.3825                10.3905                 5.6996
 IR Inten    --      9.1482                 3.2069                15.3246

                     43                     44                     45
                      A                      A                      A
 Frequencies --   3025.4707              3043.5759              3097.8841
 Red. masses --      1.0434                 1.0817                 1.0957
 Frc consts  --      5.6273                 5.9035                 6.1954
 IR Inten    --     11.4436                26.3641                28.0484

                     46                     47                     48
                      A                      A                      A
 Frequencies --   3120.9491              3143.8384              3165.4159
 Red. masses --      1.1015                 1.0887                 1.0927
 Frc consts  --      6.3211                 6.3401                 6.4507
 IR Inten    --     22.2504                20.8386                30.5155

                     49                     50                     51
                      A                      A                      A
 Frequencies --   3204.2354              3227.9983              3793.6323
 Red. masses --      1.0860                 1.1042                 1.0658
 Frc consts  --      6.5694                 6.7790                 9.0376
 IR Inten    --      5.3225                11.6501                14.4278

 - Thermochemistry -
 -------------------
 Temperature   298.150 Kelvin.  Pressure   1.00000 Atm.
 Atom     1 has atomic number  6 and mass  12.00000

 Molecular mass:   126.06808 amu.
 Principal axes and moments of inertia in atomic units:
                           1         2         3
     Eigenvalues --   561.954031478.900731856.70731
           X            0.99894  -0.04381   0.01419
           Y            0.04340   0.99868   0.02749
           Z           -0.01538  -0.02684   0.99952
 This molecule is an asymmetric top.
 Rotational symmetry number  1.
 Warning -- assumption of classical behavior for rotation
           may cause significant error
 Rotational temperatures (Kelvin)      0.15413     0.05857     0.04665
 Rotational constants (GHZ):           3.21155     1.22033     0.97201
 Zero-point vibrational energy     416373.9 (Joules/Mol)
                                   99.51576 (Kcal/Mol)
 Warning -- explicit consideration of  11 degrees of freedom as
           vibrations may cause significant error
 Vibrational temperatures:    102.80   180.58   258.56   341.87   426.14
          (Kelvin)            468.75   527.70   588.67   626.89   672.79
                              847.34  1049.48  1087.16  1140.19  1220.17
                             1232.58  1258.76  1312.70  1365.93  1395.74
                             1442.86  1478.44  1488.65  1525.15  1576.32
                             1605.11  1634.81  1654.76  1749.79  1804.03
                             1826.91  1868.49  1904.86  1964.30  1977.16
                             2020.89  2025.55  2046.99  2144.70  2151.67
                             2386.17  4304.19  4352.97  4379.02  4457.16
                             4490.34  4523.28  4554.32  4610.17  4644.36
                             5458.18

 Zero-point correction=                           0.158588 (Hartree/Particle)
 Thermal correction to Energy=                    0.167081
 Thermal correction to Enthalpy=                  0.168025
 Thermal correction to Gibbs Free Energy=         0.125396
 Sum of electronic and zero-point Energies=           -423.007928
 Sum of electronic and thermal Energies=              -422.999435
 Sum of electronic and thermal Enthalpies=            -422.998491
 Sum of electronic and thermal Free Energies=         -423.041120

                     E (Thermal)             CV                S
                      KCal/Mol        Cal/Mol-Kelvin    Cal/Mol-Kelvin
 Total                  104.845             32.711             89.720
 Electronic               0.000              0.000              0.000
 Translational            0.889              2.981             40.409
 Rotational               0.889              2.981             28.825
 Vibrational            103.068             26.750             20.487
 Vibration     1          0.598              1.968              4.113
 Vibration     2          0.610              1.928              3.014
 Vibration     3          0.629              1.867              2.331
 Vibration     4          0.656              1.783              1.821
 Vibration     5          0.690              1.681              1.438
 Vibration     6          0.710              1.624              1.281
 Vibration     7          0.740              1.541              1.093
 Vibration     8          0.774              1.450              0.930
 Vibration     9          0.796              1.392              0.840
 Vibration    10          0.825              1.322              0.744
 Vibration    11          0.946              1.055              0.469

 Normal termination of Gaussian 09 at Mon Jan 27 16:17:18 2020.
