 Gaussian 09, Revision D.01,
 Gaussian 09:  ES64L-G09RevD.01 24-Apr-2013

 -----------------------------
 # b3lyp 6-31G(2df,p) opt Freq
 -----------------------------

 -----
 titel
 -----
 Symbolic Z-matrix:
 Charge =  0 Multiplicity = 1

 SCF Done:  E(RB3LYP) =  -423.159046626     A.U. after   13 cycles
 Optimization completed.
    -- Stationary point found.
 Normal termination of Gaussian 09 at Mon Jan 27 18:49:06 2020.

 ----------------------------------------------------------------------
 #N Geom=AllCheck Guess=TCheck SCRF=Check GenChk RB3LYP/6-31G(2df,p) Fr
 eq
 ----------------------------------------------------------------------

 Structure from the checkpoint file:  "/scratch/puck/g09_9f508562-ba7a-496d-87fd-fa574a359c36/Gau-183254.chk"
 -----
 titel
 -----
 Charge =  0 Multiplicity = 1

                         Standard orientation:
 ---------------------------------------------------------------------
 Center     Atomic      Atomic             Coordinates (Angstroms)
 Number     Number       Type             X           Y           Z
 ---------------------------------------------------------------------
      1          8           0        2.544881   -0.081855   -0.449284
      2          6           0        1.205009    0.005386   -0.069072
      3          6           0        0.796461    1.385944    0.433278
      4          6           0       -0.717510    1.465148    0.120958
      5          6           0       -1.129759    0.009832   -0.129071
      6          8           0       -2.408466   -0.046810   -0.689437
      7          6           0       -0.827976   -0.877111    1.126674
      8          6           0        0.524494   -1.222842    0.505311
      9          6           0        0.096304   -0.648003   -0.850425
     10          1           0        2.782190   -1.008970   -0.551796
     11          1           0        1.016462    1.510719    1.498621
     12          1           0        1.366796    2.146734   -0.106084
     13          1           0       -1.304888    1.917743    0.925018
     14          1           0       -0.900791    2.038281   -0.793351
     15          1           0       -2.654290   -0.971862   -0.793340
     16          1           0       -0.856448   -0.394984    2.110793
     17          1           0       -1.485015   -1.754087    1.142281
     18          1           0        1.102763   -2.120084    0.707568
     19          1           0        0.159763   -1.044294   -1.855862
 ---------------------------------------------------------------------

 SCF Done:  E(RB3LYP) =  -423.159046626     A.U. after    1 cycles

 The electronic state is 1-A.
 Alpha  occ. eigenvalues --  -19.14470 -19.14067 -10.23906 -10.23880 -10.19187
 Alpha  occ. eigenvalues --  -10.18379 -10.17792 -10.17725 -10.17473  -1.03279
 Alpha  occ. eigenvalues --   -1.02582  -0.89703  -0.76119  -0.71830  -0.66243
 Alpha  occ. eigenvalues --   -0.60192  -0.57017  -0.53866  -0.53085  -0.48991
 Alpha  occ. eigenvalues --   -0.46142  -0.44740  -0.42270  -0.40133  -0.39308
 Alpha  occ. eigenvalues --   -0.37417  -0.36660  -0.35536  -0.34086  -0.33159
 Alpha  occ. eigenvalues --   -0.29558  -0.27130  -0.25995  -0.22611
 Alpha virt. eigenvalues --    0.06767   0.08031   0.09913   0.10607   0.11758
 Alpha virt. eigenvalues --    0.13904   0.15885   0.16234   0.16848   0.17871
 Alpha virt. eigenvalues --    0.18281   0.18947   0.20757   0.22322   0.25048

 Mulliken charges:
               1
     1  O   -0.488725
     2  C    0.464896
     3  C   -0.283186
     4  C   -0.231024
     5  C    0.408955
     6  O   -0.491242
     7  C   -0.298019
     8  C   -0.152097
     9  C   -0.254391
    10  H    0.282037
    11  H    0.101694
    12  H    0.113369
    13  H    0.100148
    14  H    0.107575
    15  H    0.276881
    16  H    0.093708
    17  H    0.089915
    18  H    0.074374
    19  H    0.085133
 Sum of Mulliken charges =   0.00000

 Dipole moment (field-independent basis, Debye):
    X=             -0.0266    Y=             -2.2363    Z=              0.2732  Tot=              2.2531
 Quadrupole moment (field-independent basis, Debye-Ang):
   XX=            -56.7270   YY=            -48.6353   ZZ=            -53.0450
   XY=             -0.2721   XZ=             -0.6217   YZ=              2.1938

  Exact polarizability:  79.751   0.410  75.190  -0.798   0.080  66.892
 Approx polarizability: 113.134   1.104 108.679   0.890  -0.942 104.888

                      1                      2                      3
                      A                      A                      A
 Frequencies --    125.4309               190.6927               235.2688
 Red. masses --      1.0556                 1.9169                 4.2512
 Frc consts  --      0.0098                 0.0411                 0.1386
 IR Inten    --     76.6308                 1.5146                 1.3569

                      4                      5                      6
                      A                      A                      A
 Frequencies --    290.9963               325.5393               348.7757
 Red. masses --      2.6228                 1.4000                 2.4350
 Frc consts  --      0.1309                 0.0874                 0.1745
 IR Inten    --     15.8723                83.7332                 4.6466

                      7                      8                      9
                      A                      A                      A
 Frequencies --    399.0499               429.1563               464.2783
 Red. masses --      2.8207                 3.2400                 2.5578
 Frc consts  --      0.2646                 0.3516                 0.3248
 IR Inten    --      5.0820                14.1017                 0.2424

                     10                     11                     12
                      A                      A                      A
 Frequencies --    546.1775               590.9285               630.4374
 Red. masses --      4.5355                 3.4990                 3.7221
 Frc consts  --      0.7972                 0.7199                 0.8716
 IR Inten    --      2.4720                 5.4088                 7.2718

                     13                     14                     15
                      A                      A                      A
 Frequencies --    717.3011               776.8225               834.1122
 Red. masses --      3.7992                 2.3065                 1.4806
 Frc consts  --      1.1517                 0.8201                 0.6069
 IR Inten    --      3.1389                 3.4871                 6.1192

                     16                     17                     18
                      A                      A                      A
 Frequencies --    847.0523               899.6783               937.1053
 Red. masses --      1.4814                 2.6769                 2.1694
 Frc consts  --      0.6262                 1.2766                 1.1225
 IR Inten    --      1.2708                 5.6679                 9.5865

                     19                     20                     21
                      A                      A                      A
 Frequencies --    941.6174               963.5517               973.2662
 Red. masses --      2.0473                 1.6254                 1.6089
 Frc consts  --      1.0695                 0.8891                 0.8980
 IR Inten    --     11.7635                13.3371                 7.8581

                     22                     23                     24
                      A                      A                      A
 Frequencies --   1001.2841              1021.1920              1074.0725
 Red. masses --      2.3199                 2.7812                 1.7940
 Frc consts  --      1.3703                 1.7088                 1.2194
 IR Inten    --      2.0483                14.4495                35.4860

                     25                     26                     27
                      A                      A                      A
 Frequencies --   1095.7543              1114.9102              1135.5697
 Red. masses --      2.2201                 1.5858                 1.5337
 Frc consts  --      1.5706                 1.1614                 1.1653
 IR Inten    --     27.8409                35.1176                 6.4676

                     28                     29                     30
                      A                      A                      A
 Frequencies --   1167.2356              1176.5419              1224.6992
 Red. masses --      1.5911                 1.8569                 1.6462
 Frc consts  --      1.2772                 1.5145                 1.4548
 IR Inten    --     29.3816                21.5279                18.8145

                     31                     32                     33
                      A                      A                      A
 Frequencies --   1236.9020              1245.1891              1268.6677
 Red. masses --      1.8067                 1.9661                 1.3792
 Frc consts  --      1.6286                 1.7961                 1.3079
 IR Inten    --     51.5508                56.0499                 9.1557

                     34                     35                     36
                      A                      A                      A
 Frequencies --   1301.6529              1341.9086              1382.7937
 Red. masses --      1.4088                 1.9619                 2.2677
 Frc consts  --      1.4063                 2.0815                 2.5548
 IR Inten    --     21.3975                89.2636                42.8841

                     37                     38                     39
                      A                      A                      A
 Frequencies --   1392.3112              1425.3648              1485.8949
 Red. masses --      2.1137                 2.5454                 1.1144
 Frc consts  --      2.4142                 3.0469                 1.4497
 IR Inten    --      5.8331                47.1411                 3.8837

                     40                     41                     42
                      A                      A                      A
 Frequencies --   1488.0712              1510.0826              3023.7844
 Red. masses --      1.1080                 1.1161                 1.0570
 Frc consts  --      1.4455                 1.4995                 5.6944
 IR Inten    --      1.1675                 1.5819                49.9639

                     43                     44                     45
                      A                      A                      A
 Frequencies --   3047.5095              3054.2963              3074.6671
 Red. masses --      1.0599                 1.0640                 1.1074
 Frc consts  --      5.7995                 5.8482                 6.1680
 IR Inten    --     30.0257                30.0296                33.7534

                     46                     47                     48
                      A                      A                      A
 Frequencies --   3089.7450              3106.0935              3143.9775
 Red. masses --      1.1006                 1.1049                 1.0908
 Frc consts  --      6.1904                 6.2804                 6.3529
 IR Inten    --      7.5346                35.1721                27.9590

                     49                     50                     51
                      A                      A                      A
 Frequencies --   3196.6812              3811.2889              3820.0865
 Red. masses --      1.0956                 1.0659                 1.0659
 Frc consts  --      6.5962                 9.1223                 9.1646
 IR Inten    --      7.8994                15.0815                18.7590

 - Thermochemistry -
 -------------------
 Temperature   298.150 Kelvin.  Pressure   1.00000 Atm.
 Atom     1 has atomic number  8 and mass  15.99491

 Molecular mass:   126.06808 amu.
 Principal axes and moments of inertia in atomic units:
                           1         2         3
     Eigenvalues --   577.816591192.848511378.48568
           X            0.99997   0.00215  -0.00694
           Y           -0.00200   0.99977   0.02148
           Z            0.00698  -0.02147   0.99975
 This molecule is an asymmetric top.
 Rotational symmetry number  1.
 Warning -- assumption of classical behavior for rotation
           may cause significant error
 Rotational temperatures (Kelvin)      0.14990     0.07261     0.06283
 Rotational constants (GHZ):           3.12338     1.51297     1.30922
 Zero-point vibrational energy     418247.2 (Joules/Mol)
                                   99.96347 (Kcal/Mol)
 Warning -- explicit consideration of  11 degrees of freedom as
           vibrations may cause significant error
 Vibrational temperatures:    180.47   274.36   338.50   418.68   468.38
          (Kelvin)            501.81   574.14   617.46   667.99   785.83
                              850.21   907.06  1032.04  1117.67  1200.10
                             1218.72  1294.43  1348.28  1354.78  1386.33
                             1400.31  1440.62  1469.27  1545.35  1576.54
                             1604.11  1633.83  1679.39  1692.78  1762.07
                             1779.62  1791.55  1825.33  1872.79  1930.70
                             1989.53  2003.22  2050.78  2137.87  2141.00
                             2172.67  4350.55  4384.68  4394.45  4423.75
                             4445.45  4468.97  4523.48  4599.31  5483.59
                             5496.25

 Zero-point correction=                           0.159302 (Hartree/Particle)
 Thermal correction to Energy=                    0.167310
 Thermal correction to Enthalpy=                  0.168255
 Thermal correction to Gibbs Free Energy=         0.127393
 Sum of electronic and zero-point Energies=           -422.999745
 Sum of electronic and thermal Energies=              -422.991736
 Sum of electronic and thermal Enthalpies=            -422.990792
 Sum of electronic and thermal Free Energies=         -423.031654

                     E (Thermal)             CV                S
                      KCal/Mol        Cal/Mol-Kelvin    Cal/Mol-Kelvin
 Total                  104.989             32.499             86.000
 Electronic               0.000              0.000              0.000
 Translational            0.889              2.981             40.409
 Rotational               0.889              2.981             28.343
 Vibrational            103.211             26.538             17.249
 Vibration     1          0.610              1.928              3.015
 Vibration     2          0.634              1.853              2.221
 Vibration     3          0.655              1.787              1.838
 Vibration     4          0.687              1.690              1.468
 Vibration     5          0.710              1.624              1.282
 Vibration     6          0.726              1.578              1.172
 Vibration     7          0.765              1.472              0.966
 Vibration     8          0.791              1.407              0.861
 Vibration     9          0.822              1.329              0.754
 Vibration    10          0.901              1.148              0.552
 Vibration    11          0.948              1.051              0.466

 Optimization completed.
    -- Stationary point found.
 Normal termination of Gaussian 09 at Mon Jan 27 19:31:47 2020.
