 Gaussian 09, Revision D.01,
 Gaussian 09:  ES64L-G09RevD.01 24-Apr-2013

 -----------------------------
 # b3lyp 6-31G(2df,p) opt Freq
 -----------------------------

 -----
 titel
 -----
 Symbolic Z-matrix:
 Charge =  0 Multiplicity = 1

 SCF Done:  E(RB3LYP) =  -423.157538740     A.U. after   14 cycles
 Optimization completed.
    -- Stationary point found.
 Normal termination of Gaussian 09 at Mon Jan 27 17:13:32 2020.

 ----------------------------------------------------------------------
 #N Geom=AllCheck Guess=TCheck SCRF=Check GenChk RB3LYP/6-31G(2df,p) Fr
 eq
 ----------------------------------------------------------------------

 Structure from the checkpoint file:  "/scratch/puck/g09_0fc4f22a-d363-4bdb-b1a1-87115af9d270/Gau-86403.chk"
 -----
 titel
 -----
 Charge =  0 Multiplicity = 1

                         Standard orientation:
 ---------------------------------------------------------------------
 Center     Atomic      Atomic             Coordinates (Angstroms)
 Number     Number       Type             X           Y           Z
 ---------------------------------------------------------------------
      1          6           0       -2.631247   -0.583116   -0.372516
      2          6           0       -1.225414   -0.416440    0.099879
      3          6           0       -0.755182    0.180746    1.390821
      4          6           0       -0.209196    0.713298    0.069864
      5          6           0       -0.266427    2.148667   -0.358630
      6          6           0        0.732976   -0.345632   -0.528555
      7          8           0       -0.256273   -1.383636   -0.356898
      8          6           0        2.036789   -0.596629    0.195799
      9          8           0        3.060669   -0.024283   -0.079397
     10          1           0       -3.062380   -1.506359    0.031050
     11          1           0       -3.251505    0.252142   -0.035205
     12          1           0       -2.675886   -0.636203   -1.464603
     13          1           0       -1.454597    0.860321    1.869346
     14          1           0       -0.152448   -0.403217    2.079473
     15          1           0        0.588458    2.712029    0.032522
     16          1           0       -0.255564    2.241273   -1.450167
     17          1           0       -1.176211    2.631751    0.012017
     18          1           0        0.937064   -0.160020   -1.590288
     19          1           0        1.974100   -1.333739    1.026241
 ---------------------------------------------------------------------

 SCF Done:  E(RB3LYP) =  -423.157538740     A.U. after    1 cycles

 The electronic state is 1-A.
 Alpha  occ. eigenvalues --  -19.14798 -19.14323 -10.27090 -10.25164 -10.24604
 Alpha  occ. eigenvalues --  -10.21458 -10.19571 -10.19239 -10.19221  -1.06456
 Alpha  occ. eigenvalues --   -1.04719  -0.84950  -0.76481  -0.72046  -0.70526
 Alpha  occ. eigenvalues --   -0.62061  -0.57075  -0.52326  -0.50792  -0.48460
 Alpha  occ. eigenvalues --   -0.47376  -0.44311  -0.43017  -0.42050  -0.41537
 Alpha  occ. eigenvalues --   -0.40619  -0.39801  -0.38843  -0.38319  -0.33579
 Alpha  occ. eigenvalues --   -0.32825  -0.28725  -0.24684  -0.24170
 Alpha virt. eigenvalues --   -0.03371   0.08117   0.08674   0.10631   0.11296
 Alpha virt. eigenvalues --    0.12113   0.13363   0.15008   0.15912   0.16395
 Alpha virt. eigenvalues --    0.16897   0.17419   0.17928   0.19650   0.22232

 Mulliken charges:
               1
     1  C   -0.490588
     2  C    0.435850
     3  C   -0.392421
     4  C    0.188577
     5  C   -0.494974
     6  C    0.000811
     7  O   -0.339603
     8  C    0.132163
     9  O   -0.247269
    10  H    0.137732
    11  H    0.126043
    12  H    0.130931
    13  H    0.116897
    14  H    0.116402
    15  H    0.138334
    16  H    0.125022
    17  H    0.122689
    18  H    0.104718
    19  H    0.088685
 Sum of Mulliken charges =   0.00000

 Dipole moment (field-independent basis, Debye):
    X=             -2.9440    Y=              1.0342    Z=              0.4198  Tot=              3.1485
 Quadrupole moment (field-independent basis, Debye-Ang):
   XX=            -59.8585   YY=            -54.0216   ZZ=            -51.4045
   XY=             -2.5581   XZ=              0.2956   YZ=             -0.8114

  Exact polarizability:  89.905   2.402  71.396  -1.809  -2.657  69.139
 Approx polarizability: 124.019   7.844 106.581  -6.146  -2.685 104.773

                      1                      2                      3
                      A                      A                      A
 Frequencies --     62.7027               119.7343               163.7423
 Red. masses --      4.4054                 4.4532                 2.3821
 Frc consts  --      0.0102                 0.0376                 0.0376
 IR Inten    --      7.5092                 0.9089                 1.0328

                      4                      5                      6
                      A                      A                      A
 Frequencies --    179.9083               188.2258               204.7991
 Red. masses --      1.0751                 1.1611                 1.8598
 Frc consts  --      0.0205                 0.0242                 0.0460
 IR Inten    --      0.0989                 1.1941                 2.6280

                      7                      8                      9
                      A                      A                      A
 Frequencies --    295.9673               327.6233               401.4897
 Red. masses --      2.7364                 2.7820                 3.6832
 Frc consts  --      0.1412                 0.1759                 0.3498
 IR Inten    --      1.7059                 0.3798                19.3134

                     10                     11                     12
                      A                      A                      A
 Frequencies --    440.4922               486.5757               514.0445
 Red. masses --      2.7194                 3.3026                 2.9703
 Frc consts  --      0.3109                 0.4607                 0.4624
 IR Inten    --      1.0600                 0.6986                10.8431

                     13                     14                     15
                      A                      A                      A
 Frequencies --    615.7111               694.8408               761.1384
 Red. masses --      3.8541                 3.3908                 3.8836
 Frc consts  --      0.8608                 0.9645                 1.3256
 IR Inten    --      0.2759                 8.2493                 7.6304

                     16                     17                     18
                      A                      A                      A
 Frequencies --    829.7882               892.4038               942.8530
 Red. masses --      3.4269                 2.3928                 1.2188
 Frc consts  --      1.3902                 1.1227                 0.6384
 IR Inten    --      2.9555                17.6238                10.1068

                     19                     20                     21
                      A                      A                      A
 Frequencies --    966.0094               972.7395              1022.8661
 Red. masses --      1.4245                 1.9442                 1.8676
 Frc consts  --      0.7832                 1.0839                 1.1513
 IR Inten    --      2.9672                16.0271                25.6222

                     22                     23                     24
                      A                      A                      A
 Frequencies --   1042.9713              1060.3125              1089.3400
 Red. masses --      2.8453                 1.5264                 2.4474
 Frc consts  --      1.8236                 1.0111                 1.7112
 IR Inten    --     45.5205                12.2086                 8.9974

                     25                     26                     27
                      A                      A                      A
 Frequencies --   1107.6015              1118.4995              1192.8414
 Red. masses --      1.8949                 2.0606                 1.8104
 Frc consts  --      1.3696                 1.5189                 1.5177
 IR Inten    --      7.6290                 6.8352                28.2374

                     28                     29                     30
                      A                      A                      A
 Frequencies --   1200.6152              1236.0682              1311.2739
 Red. masses --      2.4241                 2.1565                 1.4104
 Frc consts  --      2.0588                 1.9412                 1.4288
 IR Inten    --      3.0654                22.5747                 6.0400

                     31                     32                     33
                      A                      A                      A
 Frequencies --   1314.6223              1393.7709              1406.7508
 Red. masses --      3.0215                 1.3363                 1.2674
 Frc consts  --      3.0766                 1.5295                 1.4777
 IR Inten    --      6.8599                 3.0000                 1.6684

                     34                     35                     36
                      A                      A                      A
 Frequencies --   1417.0249              1437.4541              1473.0439
 Red. masses --      1.3024                 1.5444                 1.0485
 Frc consts  --      1.5408                 1.8801                 1.3405
 IR Inten    --      0.1444                 8.9845                 2.6871

                     37                     38                     39
                      A                      A                      A
 Frequencies --   1485.1118              1492.4780              1497.4905
 Red. masses --      1.0520                 1.0952                 1.0901
 Frc consts  --      1.3671                 1.4373                 1.4403
 IR Inten    --      3.1734                 3.6753                 5.9168

                     40                     41                     42
                      A                      A                      A
 Frequencies --   1515.2594              1824.2452              2893.6826
 Red. masses --      1.8893                10.5912                 1.0839
 Frc consts  --      2.5558                20.7664                 5.3476
 IR Inten    --     13.4918               153.5551                77.3209

                     43                     44                     45
                      A                      A                      A
 Frequencies --   3026.8238              3034.1143              3038.3500
 Red. masses --      1.0361                 1.0365                 1.0838
 Frc consts  --      5.5928                 5.6217                 5.8947
 IR Inten    --     24.8807                22.6185                27.5645

                     46                     47                     48
                      A                      A                      A
 Frequencies --   3088.6610              3098.1141              3100.5885
 Red. masses --      1.1010                 1.1001                 1.1005
 Frc consts  --      6.1881                 6.2210                 6.2332
 IR Inten    --     15.9808                15.6836                15.2196

                     49                     50                     51
                      A                      A                      A
 Frequencies --   3117.4113              3120.2739              3205.7747
 Red. masses --      1.0919                 1.0629                 1.1163
 Frc consts  --      6.2520                 6.0971                 6.7591
 IR Inten    --      6.6054                19.2514                 7.6385

 - Thermochemistry -
 -------------------
 Temperature   298.150 Kelvin.  Pressure   1.00000 Atm.
 Atom     1 has atomic number  6 and mass  12.00000

 Molecular mass:   126.06808 amu.
 Principal axes and moments of inertia in atomic units:
                           1         2         3
     Eigenvalues --   633.791211429.197851718.51312
           X            0.99998  -0.00358   0.00590
           Y            0.00376   0.99949  -0.03164
           Z           -0.00578   0.03166   0.99948
 This molecule is an asymmetric top.
 Rotational symmetry number  1.
 Warning -- assumption of classical behavior for rotation
           may cause significant error
 Rotational temperatures (Kelvin)      0.13666     0.06060     0.05040
 Rotational constants (GHZ):           2.84753     1.26277     1.05018
 Zero-point vibrational energy     409267.7 (Joules/Mol)
                                   97.81734 (Kcal/Mol)
 Warning -- explicit consideration of  13 degrees of freedom as
           vibrations may cause significant error
 Vibrational temperatures:     90.22   172.27   235.59   258.85   270.81
          (Kelvin)            294.66   425.83   471.38   577.65   633.77
                              700.07   739.59   885.87   999.72  1095.11
                             1193.88  1283.97  1356.55  1389.87  1399.55
                             1471.67  1500.60  1525.55  1567.32  1593.59
                             1609.27  1716.23  1727.42  1778.42  1886.63
                             1891.45  2005.32  2024.00  2038.78  2068.17
                             2119.38  2136.74  2147.34  2154.55  2180.12
                             2624.68  4163.36  4354.92  4365.41  4371.50
                             4443.89  4457.49  4461.05  4485.25  4489.37
                             4612.39

 Zero-point correction=                           0.155882 (Hartree/Particle)
 Thermal correction to Energy=                    0.165309
 Thermal correction to Enthalpy=                  0.166253
 Thermal correction to Gibbs Free Energy=         0.121564
 Sum of electronic and zero-point Energies=           -423.001657
 Sum of electronic and thermal Energies=              -422.992230
 Sum of electronic and thermal Enthalpies=            -422.991286
 Sum of electronic and thermal Free Energies=         -423.035974

                     E (Thermal)             CV                S
                      KCal/Mol        Cal/Mol-Kelvin    Cal/Mol-Kelvin
 Total                  103.733             34.417             94.055
 Electronic               0.000              0.000              0.000
 Translational            0.889              2.981             40.409
 Rotational               0.889              2.981             28.833
 Vibrational            101.956             28.456             24.814
 Vibration     1          0.597              1.972              4.370
 Vibration     2          0.609              1.933              3.105
 Vibration     3          0.623              1.887              2.506
 Vibration     4          0.629              1.867              2.329
 Vibration     5          0.633              1.856              2.245
 Vibration     6          0.640              1.833              2.090
 Vibration     7          0.690              1.681              1.440
 Vibration     8          0.711              1.620              1.272
 Vibration     9          0.767              1.467              0.957
 Vibration    10          0.800              1.382              0.825
 Vibration    11          0.843              1.280              0.693
 Vibration    12          0.869              1.219              0.624
 Vibration    13          0.975              0.999              0.423

 Normal termination of Gaussian 09 at Mon Jan 27 17:56:09 2020.
