 Gaussian 09, Revision D.01,
 Gaussian 09:  ES64L-G09RevD.01 24-Apr-2013

 -----------------------------
 # b3lyp 6-31G(2df,p) opt Freq
 -----------------------------

 -----
 titel
 -----
 Symbolic Z-matrix:
 Charge =  0 Multiplicity = 1

 SCF Done:  E(RB3LYP) =  -423.151583795     A.U. after   12 cycles
 Optimization completed.
    -- Stationary point found.
 Normal termination of Gaussian 09 at Mon Jan 27 17:41:51 2020.

 ----------------------------------------------------------------------
 #N Geom=AllCheck Guess=TCheck SCRF=Check GenChk RB3LYP/6-31G(2df,p) Fr
 eq
 ----------------------------------------------------------------------

 Structure from the checkpoint file:  "/scratch/puck/g09_5c4c461e-d21b-4702-9793-39896257b918/Gau-33897.chk"
 -----
 titel
 -----
 Charge =  0 Multiplicity = 1

                         Standard orientation:
 ---------------------------------------------------------------------
 Center     Atomic      Atomic             Coordinates (Angstroms)
 Number     Number       Type             X           Y           Z
 ---------------------------------------------------------------------
      1          8           0       -2.517753    0.858145   -0.278808
      2          6           0       -1.309164    0.271327    0.089846
      3          6           0       -1.297287   -1.015909    0.895819
      4          6           0       -0.854934   -0.997213   -0.557247
      5          8           0        0.515545   -0.942045   -0.850156
      6          6           0        1.060689    0.147258   -0.120242
      7          6           0        2.470157    0.510266   -0.440147
      8          6           0        2.143319   -0.170206    0.879330
      9          6           0       -0.060661    1.143536    0.160191
     10          1           0       -2.914719    1.244424    0.509576
     11          1           0       -0.561202   -1.158049    1.679510
     12          1           0       -2.268268   -1.463372    1.080562
     13          1           0       -1.429164   -1.518472   -1.312760
     14          1           0        2.965569   -0.085523   -1.198445
     15          1           0        2.747220    1.559049   -0.432037
     16          1           0        2.425138   -1.212136    0.980754
     17          1           0        2.199718    0.415191    1.791812
     18          1           0        0.077753    1.656357    1.117269
     19          1           0       -0.137085    1.899368   -0.629833
 ---------------------------------------------------------------------

 SCF Done:  E(RB3LYP) =  -423.151583795     A.U. after    1 cycles

 The electronic state is 1-A.
 Alpha  occ. eigenvalues --  -19.14678 -19.14329 -10.23978 -10.23766 -10.23020
 Alpha  occ. eigenvalues --  -10.18782 -10.18338 -10.18184 -10.18159  -1.05163
 Alpha  occ. eigenvalues --   -1.02782  -0.85394  -0.83362  -0.72843  -0.62014
 Alpha  occ. eigenvalues --   -0.60525  -0.58610  -0.54874  -0.52653  -0.48449
 Alpha  occ. eigenvalues --   -0.47452  -0.45704  -0.43139  -0.41972  -0.39997
 Alpha  occ. eigenvalues --   -0.38675  -0.37717  -0.36280  -0.34516  -0.31793
 Alpha  occ. eigenvalues --   -0.29428  -0.27562  -0.26157  -0.21917
 Alpha virt. eigenvalues --    0.07534   0.08865   0.10518   0.11125   0.11954
 Alpha virt. eigenvalues --    0.13319   0.14814   0.15718   0.16719   0.17267
 Alpha virt. eigenvalues --    0.19429   0.20036   0.21027   0.22118   0.23112

 Mulliken charges:
               1
     1  O   -0.468912
     2  C    0.363148
     3  C   -0.388207
     4  C    0.058205
     5  O   -0.289586
     6  C    0.445566
     7  C   -0.343709
     8  C   -0.317711
     9  C   -0.378084
    10  H    0.282937
    11  H    0.121698
    12  H    0.114384
    13  H    0.111211
    14  H    0.127514
    15  H    0.115490
    16  H    0.121875
    17  H    0.107796
    18  H    0.100055
    19  H    0.116330
 Sum of Mulliken charges =   0.00000

 Dipole moment (field-independent basis, Debye):
    X=             -0.2899    Y=              0.9544    Z=              1.9396  Tot=              2.1811
 Quadrupole moment (field-independent basis, Debye-Ang):
   XX=            -51.6974   YY=            -51.9095   ZZ=            -52.9670
   XY=              1.0033   XZ=             -3.1213   YZ=              1.3160

  Exact polarizability:  86.781   2.313  70.516  -1.477  -1.189  67.363
 Approx polarizability: 111.279   0.281 104.691  -1.714  -0.101 106.121

                      1                      2                      3
                      A                      A                      A
 Frequencies --     99.8856               201.2213               259.4876
 Red. masses --      3.5894                 3.0288                 2.3480
 Frc consts  --      0.0211                 0.0723                 0.0931
 IR Inten    --      1.0086                 1.7060                 2.9837

                      4                      5                      6
                      A                      A                      A
 Frequencies --    297.3919               337.5231               386.6947
 Red. masses --      1.3043                 2.0924                 3.1634
 Frc consts  --      0.0680                 0.1404                 0.2787
 IR Inten    --     50.8085                35.3805                 5.8313

                      7                      8                      9
                      A                      A                      A
 Frequencies --    387.8301               433.0467               453.7024
 Red. masses --      2.5716                 3.0250                 2.8497
 Frc consts  --      0.2279                 0.3342                 0.3456
 IR Inten    --      5.5342                 7.4585                 4.6724

                     10                     11                     12
                      A                      A                      A
 Frequencies --    528.9072               618.7001               715.9823
 Red. masses --      2.9424                 3.5498                 3.0861
 Frc consts  --      0.4850                 0.8006                 0.9321
 IR Inten    --      0.1832                 0.4447                10.1266

                     13                     14                     15
                      A                      A                      A
 Frequencies --    766.9198               780.1824               856.3379
 Red. masses --      1.4341                 1.9967                 2.1026
 Frc consts  --      0.4970                 0.7161                 0.9085
 IR Inten    --      3.5155                 3.1356                12.1296

                     16                     17                     18
                      A                      A                      A
 Frequencies --    864.7510               904.2295               919.2821
 Red. masses --      1.9583                 2.1356                 1.7797
 Frc consts  --      0.8628                 1.0288                 0.8861
 IR Inten    --      6.5829                24.0168                 1.2857

                     19                     20                     21
                      A                      A                      A
 Frequencies --    924.7917               936.6274               988.8735
 Red. masses --      1.6425                 1.7480                 2.6028
 Frc consts  --      0.8277                 0.9035                 1.4996
 IR Inten    --      2.8375                 6.0009                 5.2464

                     22                     23                     24
                      A                      A                      A
 Frequencies --   1001.5626              1022.1338              1047.7797
 Red. masses --      2.2982                 1.4175                 1.7005
 Frc consts  --      1.3583                 0.8726                 1.0999
 IR Inten    --      2.4199                15.6977                28.4810

                     25                     26                     27
                      A                      A                      A
 Frequencies --   1052.3300              1075.1894              1081.7847
 Red. masses --      1.8466                 1.4915                 1.8770
 Frc consts  --      1.2048                 1.0159                 1.2942
 IR Inten    --     12.0477                 3.5999                 7.8959

                     28                     29                     30
                      A                      A                      A
 Frequencies --   1154.2258              1179.2626              1190.7071
 Red. masses --      2.1040                 1.5480                 1.2797
 Frc consts  --      1.6515                 1.2683                 1.0690
 IR Inten    --     98.6653                25.1977                 1.0625

                     31                     32                     33
                      A                      A                      A
 Frequencies --   1212.0955              1238.3439              1283.7397
 Red. masses --      2.0964                 1.6989                 1.8871
 Frc consts  --      1.8146                 1.5349                 1.8323
 IR Inten    --     89.8702                 7.6712                36.7402

                     34                     35                     36
                      A                      A                      A
 Frequencies --   1296.8770              1345.5053              1373.6351
 Red. masses --      2.8397                 1.4720                 2.3230
 Frc consts  --      2.8140                 1.5701                 2.5825
 IR Inten    --     59.8542                25.3573                20.8277

                     37                     38                     39
                      A                      A                      A
 Frequencies --   1408.9895              1451.2685              1472.6926
 Red. masses --      1.4330                 1.0916                 1.5643
 Frc consts  --      1.6761                 1.3546                 1.9989
 IR Inten    --      0.9559                 1.8801                 9.7632

                     40                     41                     42
                      A                      A                      A
 Frequencies --   1496.1739              1504.2157              3037.1876
 Red. masses --      1.2809                 1.5480                 1.0586
 Frc consts  --      1.6894                 2.0637                 5.7535
 IR Inten    --      9.4676                10.2044                26.5945

                     43                     44                     45
                      A                      A                      A
 Frequencies --   3082.7025              3126.2533              3130.8841
 Red. masses --      1.1053                 1.0531                 1.0532
 Frc consts  --      6.1885                 6.0643                 6.0827
 IR Inten    --     18.4204                12.7585                 5.9510

                     46                     47                     48
                      A                      A                      A
 Frequencies --   3134.4257              3199.0169              3214.8587
 Red. masses --      1.0562                 1.0936                 1.1179
 Frc consts  --      6.1136                 6.5939                 6.8073
 IR Inten    --      8.1275                 9.9943                 0.5064

                     49                     50                     51
                      A                      A                      A
 Frequencies --   3225.5287              3229.1372              3793.7398
 Red. masses --      1.1165                 1.1155                 1.0662
 Frc consts  --      6.8440                 6.8529                 9.0411
 IR Inten    --      7.9982                 9.7634                18.4046

 - Thermochemistry -
 -------------------
 Temperature   298.150 Kelvin.  Pressure   1.00000 Atm.
 Atom     1 has atomic number  8 and mass  15.99491

 Molecular mass:   126.06808 amu.
 Principal axes and moments of inertia in atomic units:
                           1         2         3
     Eigenvalues --   500.557461400.601711531.81998
           X            0.99984   0.01717  -0.00450
           Y           -0.01731   0.99929  -0.03342
           Z            0.00392   0.03349   0.99943
 This molecule is an asymmetric top.
 Rotational symmetry number  1.
 Warning -- assumption of classical behavior for rotation
           may cause significant error
 Rotational temperatures (Kelvin)      0.17303     0.06184     0.05654
 Rotational constants (GHZ):           3.60546     1.28855     1.17817
 Zero-point vibrational energy     417045.8 (Joules/Mol)
                                   99.67634 (Kcal/Mol)
 Warning -- explicit consideration of  11 degrees of freedom as
           vibrations may cause significant error
 Vibrational temperatures:    143.71   289.51   373.34   427.88   485.62
          (Kelvin)            556.37   558.00   623.06   652.78   760.98
                              890.17  1030.14  1103.43  1122.51  1232.08
                             1244.18  1300.98  1322.64  1330.57  1347.60
                             1422.77  1441.02  1470.62  1507.52  1514.07
                             1546.96  1556.44  1660.67  1696.69  1713.16
                             1743.93  1781.70  1847.01  1865.91  1935.88
                             1976.35  2027.22  2088.05  2118.87  2152.66
                             2164.23  4369.83  4435.32  4497.98  4504.64
                             4509.73  4602.67  4625.46  4640.81  4646.00
                             5458.34

 Zero-point correction=                           0.158844 (Hartree/Particle)
 Thermal correction to Energy=                    0.166763
 Thermal correction to Enthalpy=                  0.167707
 Thermal correction to Gibbs Free Energy=         0.126860
 Sum of electronic and zero-point Energies=           -422.992739
 Sum of electronic and thermal Energies=              -422.984821
 Sum of electronic and thermal Enthalpies=            -422.983877
 Sum of electronic and thermal Free Energies=         -423.024724

                     E (Thermal)             CV                S
                      KCal/Mol        Cal/Mol-Kelvin    Cal/Mol-Kelvin
 Total                  104.645             32.274             85.969
 Electronic               0.000              0.000              0.000
 Translational            0.889              2.981             40.409
 Rotational               0.889              2.981             28.464
 Vibrational            102.868             26.312             17.096
 Vibration     1          0.604              1.949              3.457
 Vibration     2          0.638              1.838              2.122
 Vibration     3          0.668              1.747              1.665
 Vibration     4          0.691              1.679              1.432
 Vibration     5          0.718              1.601              1.224
 Vibration     6          0.755              1.499              1.013
 Vibration     7          0.756              1.496              1.008
 Vibration     8          0.794              1.398              0.849
 Vibration     9          0.812              1.353              0.785
 Vibration    10          0.884              1.186              0.590
 Vibration    11          0.979              0.992              0.419

 Normal termination of Gaussian 09 at Mon Jan 27 18:28:47 2020.
