 Gaussian 09, Revision D.01,
 Gaussian 09:  ES64L-G09RevD.01 24-Apr-2013

 -----------------------------
 # b3lyp 6-31G(2df,p) opt Freq
 -----------------------------

 -----
 titel
 -----
 Symbolic Z-matrix:
 Charge =  0 Multiplicity = 1

 SCF Done:  E(RB3LYP) =  -423.116218865     A.U. after   14 cycles
 Optimization completed.
    -- Stationary point found.
 Normal termination of Gaussian 09 at Tue Jan 28 14:14:53 2020.

 ----------------------------------------------------------------------
 #N Geom=AllCheck Guess=TCheck SCRF=Check GenChk RB3LYP/6-31G(2df,p) Fr
 eq
 ----------------------------------------------------------------------

 Structure from the checkpoint file:  "/scratch/puck/g09_f400c57f-ecc8-445d-8cdb-fcaffcafe2b1/Gau-98559.chk"
 -----
 titel
 -----
 Charge =  0 Multiplicity = 1

                         Standard orientation:
 ---------------------------------------------------------------------
 Center     Atomic      Atomic             Coordinates (Angstroms)
 Number     Number       Type             X           Y           Z
 ---------------------------------------------------------------------
      1          6           0       -3.466308    0.145526    0.063417
      2          8           0       -2.145054    0.493949   -0.271731
      3          6           0       -1.247408   -0.594390   -0.166599
      4          6           0        0.130838   -0.092829   -0.548296
      5          6           0        1.338076   -0.992773   -0.116775
      6          8           0        1.166142   -0.475361    1.244750
      7          6           0        0.866924    0.772898    0.531188
      8          6           0        2.206213    1.056268   -0.171019
      9          6           0        2.530680   -0.158277   -0.619275
     10          1           0       -3.543199   -0.219403    1.099961
     11          1           0       -4.079632    1.044004   -0.041333
     12          1           0       -3.865141   -0.636073   -0.603258
     13          1           0       -1.235950   -0.996803    0.856547
     14          1           0       -1.553936   -1.409560   -0.846309
     15          1           0        0.141525    0.292729   -1.570244
     16          1           0        1.350765   -2.079820   -0.193150
     17          1           0        0.374582    1.536590    1.130062
     18          1           0        2.708725    2.007410   -0.263676
     19          1           0        3.379460   -0.506312   -1.188606
 ---------------------------------------------------------------------

 SCF Done:  E(RB3LYP) =  -423.116218865     A.U. after    1 cycles

 The electronic state is 1-A.
 Alpha  occ. eigenvalues --  -19.13826 -19.12838 -10.24292 -10.23908 -10.22333
 Alpha  occ. eigenvalues --  -10.22262 -10.19531 -10.18632 -10.18540  -1.04617
 Alpha  occ. eigenvalues --   -1.02974  -0.80547  -0.75768  -0.69135  -0.68047
 Alpha  occ. eigenvalues --   -0.62490  -0.54446  -0.54171  -0.52547  -0.49421
 Alpha  occ. eigenvalues --   -0.47841  -0.45090  -0.44562  -0.40836  -0.40260
 Alpha  occ. eigenvalues --   -0.38642  -0.37363  -0.35512  -0.33353  -0.31870
 Alpha  occ. eigenvalues --   -0.31337  -0.25646  -0.25123  -0.23504
 Alpha virt. eigenvalues --   -0.00025   0.09363   0.10190   0.12013   0.12268
 Alpha virt. eigenvalues --    0.13369   0.14900   0.15547   0.16069   0.16510
 Alpha virt. eigenvalues --    0.17064   0.17748   0.18898   0.19188   0.20484

 Mulliken charges:
               1
     1  C   -0.224077
     2  O   -0.239632
     3  C   -0.093130
     4  C    0.009461
     5  C   -0.005357
     6  O   -0.289052
     7  C    0.018729
     8  C   -0.080827
     9  C   -0.084234
    10  H    0.105259
    11  H    0.125514
    12  H    0.101818
    13  H    0.105929
    14  H    0.080563
    15  H    0.080216
    16  H    0.078413
    17  H    0.086877
    18  H    0.112080
    19  H    0.111449
 Sum of Mulliken charges =   0.00000

 Dipole moment (field-independent basis, Debye):
    X=             -0.4376    Y=             -0.3186    Z=             -1.3179  Tot=              1.4247
 Quadrupole moment (field-independent basis, Debye-Ang):
   XX=            -48.6039   YY=            -50.3081   ZZ=            -56.0456
   XY=              1.8888   XZ=             -4.2173   YZ=              2.6683

  Exact polarizability:  91.935   0.103  75.121  -5.342   4.255  61.474
 Approx polarizability: 110.253  -4.128 123.983  -6.761   7.891  99.453

                      1                      2                      3
                      A                      A                      A
 Frequencies --     68.3418                92.3276               123.0391
 Red. masses --      3.2404                 2.2768                 3.5601
 Frc consts  --      0.0089                 0.0114                 0.0318
 IR Inten    --      0.3525                 4.5937                 2.5656

                      4                      5                      6
                      A                      A                      A
 Frequencies --    224.3045               286.7960               333.1071
 Red. masses --      1.3227                 2.3199                 3.3487
 Frc consts  --      0.0392                 0.1124                 0.2189
 IR Inten    --      1.5557                 4.1251                 0.4541

                      7                      8                      9
                      A                      A                      A
 Frequencies --    360.4485               527.6371               560.0372
 Red. masses --      4.2315                 2.8789                 2.3709
 Frc consts  --      0.3239                 0.4722                 0.4381
 IR Inten    --      0.9037                 2.3446                 4.8805

                     10                     11                     12
                      A                      A                      A
 Frequencies --    640.2336               706.3971               753.8012
 Red. masses --      3.4715                 1.9380                 4.8551
 Frc consts  --      0.8384                 0.5698                 1.6254
 IR Inten    --      0.6036                34.7362                 2.1599

                     13                     14                     15
                      A                      A                      A
 Frequencies --    814.3190               859.8906               869.6922
 Red. masses --      2.5148                 3.1525                 2.1024
 Frc consts  --      0.9825                 1.3734                 0.9369
 IR Inten    --     11.8325                32.3267                 0.9326

                     16                     17                     18
                      A                      A                      A
 Frequencies --    887.4837               909.3370               915.3151
 Red. masses --      3.9417                 1.5425                 2.8314
 Frc consts  --      1.8292                 0.7515                 1.3976
 IR Inten    --     21.0439                 1.7435                17.2351

                     19                     20                     21
                      A                      A                      A
 Frequencies --    949.7412               993.5403              1006.5765
 Red. masses --      4.2650                 2.1205                 2.1680
 Frc consts  --      2.2666                 1.2333                 1.2942
 IR Inten    --      7.5426                13.4609                11.9032

                     22                     23                     24
                      A                      A                      A
 Frequencies --   1071.0394              1101.2778              1147.9235
 Red. masses --      1.7027                 2.3033                 1.7315
 Frc consts  --      1.1508                 1.6458                 1.3443
 IR Inten    --      2.3285                 5.7273                48.7213

                     25                     26                     27
                      A                      A                      A
 Frequencies --   1152.2379              1163.4816              1181.9253
 Red. masses --      1.9636                 2.6392                 1.4381
 Frc consts  --      1.5360                 2.1049                 1.1837
 IR Inten    --     13.3182                82.6212                22.5801

                     28                     29                     30
                      A                      A                      A
 Frequencies --   1187.8009              1222.2012              1237.2847
 Red. masses --      1.3875                 1.4532                 1.4247
 Frc consts  --      1.1534                 1.2790                 1.2851
 IR Inten    --     15.1825                17.5336                 8.2923

                     31                     32                     33
                      A                      A                      A
 Frequencies --   1238.9087              1266.3244              1297.4252
 Red. masses --      1.3513                 1.2519                 1.5115
 Frc consts  --      1.2221                 1.1828                 1.4991
 IR Inten    --      7.1079                 6.3084                 9.8673

                     34                     35                     36
                      A                      A                      A
 Frequencies --   1301.2976              1360.3096              1423.0600
 Red. masses --      1.5603                 1.3748                 1.5204
 Frc consts  --      1.5567                 1.4989                 1.8140
 IR Inten    --      8.1309                13.8888                13.1132

                     37                     38                     39
                      A                      A                      A
 Frequencies --   1478.5472              1484.5535              1502.8709
 Red. masses --      1.1589                 1.0472                 1.0584
 Frc consts  --      1.4927                 1.3598                 1.4084
 IR Inten    --      3.0289                 4.7480                12.8933

                     40                     41                     42
                      A                      A                      A
 Frequencies --   1529.1601              1614.9508              2944.7508
 Red. masses --      1.0890                 5.7759                 1.0650
 Frc consts  --      1.5003                 8.8755                 5.4411
 IR Inten    --      2.0088                 0.4361                43.0925

                     43                     44                     45
                      A                      A                      A
 Frequencies --   2968.5548              3010.8055              3019.0882
 Red. masses --      1.0394                 1.1018                 1.0919
 Frc consts  --      5.3968                 5.8845                 5.8638
 IR Inten    --     79.5835                69.9339                12.6436

                     46                     47                     48
                      A                      A                      A
 Frequencies --   3091.1337              3111.6802              3127.3213
 Red. masses --      1.0864                 1.0958                 1.0910
 Frc consts  --      6.1159                 6.2513                 6.2868
 IR Inten    --     33.1973                31.1118                39.5030

                     49                     50                     51
                      A                      A                      A
 Frequencies --   3148.0696              3234.1329              3261.3391
 Red. masses --      1.0921                 1.0866                 1.1119
 Frc consts  --      6.3768                 6.6964                 6.9678
 IR Inten    --     21.6387                 2.6606                 6.5456

 - Thermochemistry -
 -------------------
 Temperature   298.150 Kelvin.  Pressure   1.00000 Atm.
 Atom     1 has atomic number  6 and mass  12.00000

 Molecular mass:   126.06808 amu.
 Principal axes and moments of inertia in atomic units:
                           1         2         3
     Eigenvalues --   382.713261927.386971978.77823
           X            0.99987   0.01102  -0.01150
           Y           -0.00917   0.98870   0.14964
           Z            0.01302  -0.14951   0.98867
 This molecule is an asymmetric top.
 Rotational symmetry number  1.
 Rotational temperatures (Kelvin)      0.22632     0.04494     0.04377
 Rotational constants (GHZ):           4.71565     0.93637     0.91205
 Zero-point vibrational energy     417268.4 (Joules/Mol)
                                   99.72953 (Kcal/Mol)
 Warning -- explicit consideration of   9 degrees of freedom as
           vibrations may cause significant error
 Vibrational temperatures:     98.33   132.84   177.03   322.72   412.64
          (Kelvin)            479.27   518.60   759.15   805.77   921.15
                             1016.35  1084.55  1171.62  1237.19  1251.29
                             1276.89  1308.33  1316.93  1366.46  1429.48
                             1448.24  1540.98  1584.49  1651.60  1657.81
                             1673.99  1700.52  1708.98  1758.47  1780.17
                             1782.51  1821.96  1866.70  1872.27  1957.18
                             2047.46  2127.30  2135.94  2162.29  2200.12
                             2323.55  4236.83  4271.08  4331.87  4343.79
                             4447.45  4477.01  4499.51  4529.36  4653.19
                             4692.33

 Zero-point correction=                           0.158929 (Hartree/Particle)
 Thermal correction to Energy=                    0.167162
 Thermal correction to Enthalpy=                  0.168107
 Thermal correction to Gibbs Free Energy=         0.125459
 Sum of electronic and zero-point Energies=           -422.957290
 Sum of electronic and thermal Energies=              -422.949056
 Sum of electronic and thermal Enthalpies=            -422.948112
 Sum of electronic and thermal Free Energies=         -422.990760

                     E (Thermal)             CV                S
                      KCal/Mol        Cal/Mol-Kelvin    Cal/Mol-Kelvin
 Total                  104.896             30.995             89.760
 Electronic               0.000              0.000              0.000
 Translational            0.889              2.981             40.409
 Rotational               0.889              2.981             28.769
 Vibrational            103.119             25.033             20.582
 Vibration     1          0.598              1.969              4.201
 Vibration     2          0.602              1.955              3.610
 Vibration     3          0.610              1.930              3.052
 Vibration     4          0.649              1.804              1.924
 Vibration     5          0.684              1.698              1.493
 Vibration     6          0.715              1.609              1.245
 Vibration     7          0.735              1.554              1.120
 Vibration     8          0.883              1.189              0.593
 Vibration     9          0.916              1.118              0.524

 Optimization completed.
    -- Stationary point found.
 Normal termination of Gaussian 09 at Tue Jan 28 14:59:23 2020.
