 Gaussian 09, Revision D.01,
 Gaussian 09:  ES64L-G09RevD.01 24-Apr-2013

 -----------------------------
 # b3lyp 6-31G(2df,p) opt Freq
 -----------------------------

 -----
 titel
 -----
 Symbolic Z-matrix:
 Charge =  0 Multiplicity = 1

 SCF Done:  E(RB3LYP) =  -423.169187034     A.U. after   14 cycles
 Optimization completed.
    -- Stationary point found.
 Normal termination of Gaussian 09 at Tue Jan 28 13:28:17 2020.

 ----------------------------------------------------------------------
 #N Geom=AllCheck Guess=TCheck SCRF=Check GenChk RB3LYP/6-31G(2df,p) Fr
 eq
 ----------------------------------------------------------------------

 Structure from the checkpoint file:  "/scratch/puck/g09_809b8e68-f889-4a4d-9b77-2d1f2d76ac69/Gau-109018.chk"
 -----
 titel
 -----
 Charge =  0 Multiplicity = 1

                         Standard orientation:
 ---------------------------------------------------------------------
 Center     Atomic      Atomic             Coordinates (Angstroms)
 Number     Number       Type             X           Y           Z
 ---------------------------------------------------------------------
      1          8           0        2.384405   -1.561595   -0.426064
      2          6           0        2.304425   -0.312893    0.244623
      3          6           0        1.313412    0.633603   -0.389697
      4          6           0        0.740296    1.780826    0.412993
      5          6           0       -0.134645    0.626516    0.025143
      6          6           0       -1.353149    0.671806   -0.917192
      7          6           0       -2.030456   -0.349948    0.017197
      8          8           0       -3.079122   -0.922756   -0.003015
      9          6           0       -0.828347   -0.364534    0.984538
     10          1           0        1.499358   -1.938930   -0.451937
     11          1           0        2.060368   -0.442754    1.312064
     12          1           0        3.314311    0.108656    0.196615
     13          1           0        1.502862    0.827014   -1.443238
     14          1           0        1.035629    1.864048    1.455290
     15          1           0        0.592218    2.733405   -0.085251
     16          1           0       -1.883349    1.629012   -0.969008
     17          1           0       -1.196268    0.308109   -1.938280
     18          1           0       -1.069352    0.024476    1.979597
     19          1           0       -0.367253   -1.350483    1.111150
 ---------------------------------------------------------------------

 SCF Done:  E(RB3LYP) =  -423.169187034     A.U. after    1 cycles

 The electronic state is 1-A.
 Alpha  occ. eigenvalues --  -19.14270 -19.13856 -10.27750 -10.23438 -10.21432
 Alpha  occ. eigenvalues --  -10.20137 -10.20013 -10.19860 -10.19762  -1.05184
 Alpha  occ. eigenvalues --   -1.01981  -0.89000  -0.80908  -0.70020  -0.69110
 Alpha  occ. eigenvalues --   -0.59968  -0.55658  -0.53642  -0.52055  -0.48667
 Alpha  occ. eigenvalues --   -0.47745  -0.46097  -0.43649  -0.42525  -0.41829
 Alpha  occ. eigenvalues --   -0.41273  -0.38334  -0.36864  -0.34741  -0.33544
 Alpha  occ. eigenvalues --   -0.30215  -0.28540  -0.27029  -0.24828
 Alpha virt. eigenvalues --   -0.02766   0.05616   0.08384   0.09774   0.10502
 Alpha virt. eigenvalues --    0.12214   0.13001   0.14596   0.15237   0.16632
 Alpha virt. eigenvalues --    0.16921   0.18884   0.19257   0.21912   0.22520

 Mulliken charges:
               1
     1  O   -0.418393
     2  C   -0.074728
     3  C   -0.093519
     4  C   -0.364853
     5  C    0.343545
     6  C   -0.425529
     7  C    0.409954
     8  O   -0.282992
     9  C   -0.430280
    10  H    0.282057
    11  H    0.084401
    12  H    0.116296
    13  H    0.094795
    14  H    0.115996
    15  H    0.118161
    16  H    0.133781
    17  H    0.133006
    18  H    0.135787
    19  H    0.122515
 Sum of Mulliken charges =   0.00000

 Dipole moment (field-independent basis, Debye):
    X=              1.0374    Y=              2.0101    Z=              0.4489  Tot=              2.3062
 Quadrupole moment (field-independent basis, Debye-Ang):
   XX=            -68.5232   YY=            -53.2989   ZZ=            -50.9735
   XY=             -0.6788   XZ=              1.7202   YZ=             -0.8478

  Exact polarizability:  87.674   4.226  73.480   2.111  -1.425  68.371
 Approx polarizability: 120.361   8.301 108.602   1.009  -0.001 103.410

                      1                      2                      3
                      A                      A                      A
 Frequencies --     33.7695               106.5972               140.7967
 Red. masses --      5.5349                 3.8723                 2.7191
 Frc consts  --      0.0037                 0.0259                 0.0318
 IR Inten    --      4.9250                 2.0992                 0.4469

                      4                      5                      6
                      A                      A                      A
 Frequencies --    176.7607               283.5763               308.0183
 Red. masses --      2.2190                 1.4492                 1.9994
 Frc consts  --      0.0408                 0.0687                 0.1118
 IR Inten    --      6.7949                35.9672                39.9688

                      7                      8                      9
                      A                      A                      A
 Frequencies --    354.2796               407.2757               420.9127
 Red. masses --      2.5927                 2.5788                 1.8837
 Frc consts  --      0.1917                 0.2520                 0.1966
 IR Inten    --     12.0798                 2.5529                 3.2365

                     10                     11                     12
                      A                      A                      A
 Frequencies --    454.2900               490.6393               552.9737
 Red. masses --      3.7085                 3.8531                 3.2728
 Frc consts  --      0.4509                 0.5465                 0.5896
 IR Inten    --      1.6940                 3.0964                 0.3306

                     13                     14                     15
                      A                      A                      A
 Frequencies --    676.8065               717.4084               781.1015
 Red. masses --      1.3761                 3.1186                 2.0145
 Frc consts  --      0.3714                 0.9457                 0.7241
 IR Inten    --      0.0927                 0.5552                 4.4994

                     16                     17                     18
                      A                      A                      A
 Frequencies --    857.4197               896.7899               899.5650
 Red. masses --      1.7757                 2.9131                 1.8298
 Frc consts  --      0.7691                 1.3803                 0.8724
 IR Inten    --      1.4869                 3.0104                 2.8668

                     19                     20                     21
                      A                      A                      A
 Frequencies --    960.8138               995.6153              1033.3482
 Red. masses --      1.3241                 1.8342                 2.3199
 Frc consts  --      0.7202                 1.0712                 1.4595
 IR Inten    --      8.3300                 8.1869                28.1020

                     22                     23                     24
                      A                      A                      A
 Frequencies --   1056.3528              1065.2485              1067.1805
 Red. masses --      1.7776                 3.2465                 2.1045
 Frc consts  --      1.1687                 2.1706                 1.4122
 IR Inten    --     28.9347                59.3322                36.9540

                     25                     26                     27
                      A                      A                      A
 Frequencies --   1083.3934              1101.5009              1158.6545
 Red. masses --      2.3283                 1.9872                 1.5376
 Frc consts  --      1.6102                 1.4205                 1.2162
 IR Inten    --     13.2568                15.7755                12.8228

                     28                     29                     30
                      A                      A                      A
 Frequencies --   1186.2913              1193.0377              1207.9563
 Red. masses --      1.5886                 1.4281                 1.6023
 Frc consts  --      1.3172                 1.1977                 1.3775
 IR Inten    --      0.0726                 3.9805                 8.7028

                     31                     32                     33
                      A                      A                      A
 Frequencies --   1210.4170              1249.5754              1317.6091
 Red. masses --      1.4352                 1.8075                 1.6010
 Frc consts  --      1.2389                 1.6629                 1.6377
 IR Inten    --      1.3512                14.8762                 3.2198

                     34                     35                     36
                      A                      A                      A
 Frequencies --   1366.0500              1408.3578              1429.1551
 Red. masses --      1.4000                 1.3119                 1.0877
 Frc consts  --      1.5393                 1.5331                 1.3090
 IR Inten    --      2.9327                27.5088                14.1280

                     37                     38                     39
                      A                      A                      A
 Frequencies --   1435.7166              1450.5880              1492.8522
 Red. masses --      1.3890                 1.2108                 1.6157
 Frc consts  --      1.6869                 1.5011                 2.1216
 IR Inten    --     38.8037                 3.9186                 0.5558

                     40                     41                     42
                      A                      A                      A
 Frequencies --   1504.7357              1899.4713              2967.5153
 Red. masses --      1.1056                12.8178                 1.0713
 Frc consts  --      1.4749                27.2477                 5.5583
 IR Inten    --      2.0075               297.4175                45.3190

                     43                     44                     45
                      A                      A                      A
 Frequencies --   3039.5156              3045.1872              3067.8973
 Red. masses --      1.0582                 1.0598                 1.0903
 Frc consts  --      5.7598                 5.7904                 6.0464
 IR Inten    --     15.9755                 9.7456                34.7924

                     46                     47                     48
                      A                      A                      A
 Frequencies --   3088.0357              3093.0460              3119.4023
 Red. masses --      1.1046                 1.1045                 1.0542
 Frc consts  --      6.2060                 6.2257                 6.0441
 IR Inten    --     12.0163                 4.2008                13.2320

                     49                     50                     51
                      A                      A                      A
 Frequencies --   3136.6381              3204.6568              3818.8879
 Red. masses --      1.0885                 1.1159                 1.0660
 Frc consts  --      6.3100                 6.7523                 9.1596
 IR Inten    --     12.7137                 7.7251                 9.7656

 - Thermochemistry -
 -------------------
 Temperature   298.150 Kelvin.  Pressure   1.00000 Atm.
 Atom     1 has atomic number  8 and mass  15.99491

 Molecular mass:   126.06808 amu.
 Principal axes and moments of inertia in atomic units:
                           1         2         3
     Eigenvalues --   626.390431736.267872039.21907
           X            0.99995  -0.00444   0.00919
           Y            0.00466   0.99972  -0.02340
           Z           -0.00908   0.02345   0.99968
 This molecule is an asymmetric top.
 Rotational symmetry number  1.
 Warning -- assumption of classical behavior for rotation
           may cause significant error
 Rotational temperatures (Kelvin)      0.13827     0.04989     0.04247
 Rotational constants (GHZ):           2.88118     1.03944     0.88502
 Zero-point vibrational energy     412793.5 (Joules/Mol)
                                   98.66001 (Kcal/Mol)
 Warning -- explicit consideration of  12 degrees of freedom as
           vibrations may cause significant error
 Vibrational temperatures:     48.59   153.37   202.57   254.32   408.00
          (Kelvin)            443.17   509.73   585.98   605.60   653.62
                              705.92   795.60   973.77  1032.19  1123.83
                             1233.63  1290.28  1294.27  1382.40  1432.47
                             1486.76  1519.85  1532.65  1535.43  1558.76
                             1584.81  1667.04  1706.81  1716.51  1737.98
                             1741.52  1797.86  1895.74  1965.44  2026.31
                             2056.23  2065.67  2087.07  2147.88  2164.98
                             2732.91  4269.59  4373.18  4381.34  4414.01
                             4442.99  4450.20  4488.12  4512.92  4610.78
                             5494.52

 Zero-point correction=                           0.157225 (Hartree/Particle)
 Thermal correction to Energy=                    0.166277
 Thermal correction to Enthalpy=                  0.167221
 Thermal correction to Gibbs Free Energy=         0.122634
 Sum of electronic and zero-point Energies=           -423.011962
 Sum of electronic and thermal Energies=              -423.002910
 Sum of electronic and thermal Enthalpies=            -423.001966
 Sum of electronic and thermal Free Energies=         -423.046553

                     E (Thermal)             CV                S
                      KCal/Mol        Cal/Mol-Kelvin    Cal/Mol-Kelvin
 Total                  104.340             33.852             93.841
 Electronic               0.000              0.000              0.000
 Translational            0.889              2.981             40.409
 Rotational               0.889              2.981             29.185
 Vibrational            102.563             27.890             24.247
 Vibration     1          0.594              1.983              5.595
 Vibration     2          0.605              1.944              3.330
 Vibration     3          0.615              1.912              2.793
 Vibration     4          0.628              1.871              2.362
 Vibration     5          0.682              1.704              1.512
 Vibration     6          0.698              1.658              1.373
 Vibration     7          0.730              1.566              1.147
 Vibration     8          0.772              1.454              0.936
 Vibration     9          0.783              1.425              0.889
 Vibration    10          0.813              1.351              0.783
 Vibration    11          0.846              1.271              0.682
 Vibration    12          0.908              1.133              0.538

 Optimization completed.
    -- Stationary point found.
 Normal termination of Gaussian 09 at Tue Jan 28 14:08:39 2020.
