 Gaussian 09, Revision D.01,
 Gaussian 09:  ES64L-G09RevD.01 24-Apr-2013

 -----------------------------
 # b3lyp 6-31G(2df,p) opt Freq
 -----------------------------

 -----
 titel
 -----
 Symbolic Z-matrix:
 Charge =  0 Multiplicity = 1

 SCF Done:  E(RB3LYP) =  -423.190288030     A.U. after   14 cycles
 Optimization completed.
    -- Stationary point found.
 Normal termination of Gaussian 09 at Tue Jan 28 02:27:10 2020.

 ----------------------------------------------------------------------
 #N Geom=AllCheck Guess=TCheck SCRF=Check GenChk RB3LYP/6-31G(2df,p) Fr
 eq
 ----------------------------------------------------------------------

 Structure from the checkpoint file:  "/scratch/puck/g09_dc813bbf-3ac6-48e3-8b6c-3e380254f5c2/Gau-76411.chk"
 -----
 titel
 -----
 Charge =  0 Multiplicity = 1

                         Standard orientation:
 ---------------------------------------------------------------------
 Center     Atomic      Atomic             Coordinates (Angstroms)
 Number     Number       Type             X           Y           Z
 ---------------------------------------------------------------------
      1          8           0       -2.385374   -0.611598   -0.473442
      2          6           0       -1.260228   -0.647094    0.377717
      3          6           0        0.019767   -1.284441   -0.248898
      4          6           0        1.090150   -0.155174   -0.085231
      5          8           0        2.424666   -0.523027   -0.309350
      6          6           0        0.680526    0.409206    1.302856
      7          6           0       -0.748456    0.767984    0.837701
      8          6           0       -0.436221    1.542594   -0.435483
      9          6           0        0.649129    0.986988   -0.983668
     10          1           0       -2.136982   -0.096946   -1.250505
     11          1           0       -1.586977   -1.215001    1.253150
     12          1           0        0.328981   -2.182886    0.298256
     13          1           0       -0.139492   -1.567211   -1.291962
     14          1           0        2.607468   -1.316887    0.203905
     15          1           0        0.709343   -0.342893    2.100419
     16          1           0        1.274363    1.279893    1.589243
     17          1           0       -1.411677    1.257920    1.550146
     18          1           0       -1.050321    2.332950   -0.848523
     19          1           0        1.122950    1.207681   -1.931760
 ---------------------------------------------------------------------

 SCF Done:  E(RB3LYP) =  -423.190288030     A.U. after    1 cycles

 The electronic state is 1-A.
 Alpha  occ. eigenvalues --  -19.14136 -19.13111 -10.24167 -10.23217 -10.19055
 Alpha  occ. eigenvalues --  -10.18522 -10.18394 -10.18179 -10.18074  -1.02778
 Alpha  occ. eigenvalues --   -1.01580  -0.87324  -0.74491  -0.71152  -0.68797
 Alpha  occ. eigenvalues --   -0.60478  -0.57577  -0.53353  -0.52252  -0.49361
 Alpha  occ. eigenvalues --   -0.46955  -0.45176  -0.41216  -0.40701  -0.39290
 Alpha  occ. eigenvalues --   -0.37892  -0.37143  -0.36035  -0.34722  -0.33283
 Alpha  occ. eigenvalues --   -0.29731  -0.27056  -0.26767  -0.23779
 Alpha virt. eigenvalues --    0.00690   0.07105   0.09272   0.10786   0.12199
 Alpha virt. eigenvalues --    0.13370   0.16123   0.16400   0.16899   0.17286
 Alpha virt. eigenvalues --    0.18687   0.19489   0.20567   0.21792   0.22283

 Mulliken charges:
               1
     1  O   -0.443470
     2  C    0.159745
     3  C   -0.309021
     4  C    0.397400
     5  O   -0.508385
     6  C   -0.276712
     7  C   -0.095915
     8  C   -0.117038
     9  C   -0.098614
    10  H    0.274317
    11  H    0.088654
    12  H    0.087757
    13  H    0.104381
    14  H    0.275550
    15  H    0.082567
    16  H    0.105258
    17  H    0.066230
    18  H    0.101492
    19  H    0.105802
 Sum of Mulliken charges =   0.00000

 Dipole moment (field-independent basis, Debye):
    X=              0.5603    Y=             -0.1371    Z=              0.5181  Tot=              0.7754
 Quadrupole moment (field-independent basis, Debye-Ang):
   XX=            -60.9725   YY=            -50.9152   ZZ=            -49.9085
   XY=             -5.5497   XZ=              2.4292   YZ=             -2.6954

  Exact polarizability:  78.707  -5.250  73.117  -2.246  -3.422  70.913
 Approx polarizability: 121.002 -10.353 109.334  -7.797  -4.523 108.759

                      1                      2                      3
                      A                      A                      A
 Frequencies --    143.3628               244.0822               281.2803
 Red. masses --      3.7876                 1.4827                 1.9872
 Frc consts  --      0.0459                 0.0520                 0.0926
 IR Inten    --      3.6965                38.8675                35.9704

                      4                      5                      6
                      A                      A                      A
 Frequencies --    334.0871               370.6935               383.8778
 Red. masses --      3.2378                 1.2119                 3.3452
 Frc consts  --      0.2129                 0.0981                 0.2904
 IR Inten    --      4.6123                86.7845                12.1201

                      7                      8                      9
                      A                      A                      A
 Frequencies --    425.3732               473.2659               492.9100
 Red. masses --      2.3118                 2.4847                 2.8193
 Frc consts  --      0.2465                 0.3279                 0.4036
 IR Inten    --      6.1880                 0.8742                 7.0014

                     10                     11                     12
                      A                      A                      A
 Frequencies --    516.6197               628.7617               673.9375
 Red. masses --      2.6983                 5.1187                 3.5925
 Frc consts  --      0.4243                 1.1923                 0.9614
 IR Inten    --      4.7206                 4.9121                 1.5768

                     13                     14                     15
                      A                      A                      A
 Frequencies --    752.4453               761.4974               804.2273
 Red. masses --      1.7002                 3.2586                 2.8372
 Frc consts  --      0.5672                 1.1133                 1.0812
 IR Inten    --     32.8835                 2.6495                 2.0695

                     16                     17                     18
                      A                      A                      A
 Frequencies --    832.2224               896.4137               932.8213
 Red. masses --      3.5102                 2.1597                 2.7369
 Frc consts  --      1.4324                 1.0225                 1.4031
 IR Inten    --      1.5899                 3.0388                 0.0334

                     19                     20                     21
                      A                      A                      A
 Frequencies --    943.2655               950.5241               976.5223
 Red. masses --      1.7486                 1.4289                 1.8685
 Frc consts  --      0.9167                 0.7607                 1.0498
 IR Inten    --      0.9255                 0.5131                 2.5141

                     22                     23                     24
                      A                      A                      A
 Frequencies --    997.8671              1033.3327              1073.4131
 Red. masses --      2.0680                 2.0098                 1.4439
 Frc consts  --      1.2133                 1.2644                 0.9802
 IR Inten    --     11.9264                 9.8844                21.5746

                     25                     26                     27
                      A                      A                      A
 Frequencies --   1089.6506              1122.9239              1143.6008
 Red. masses --      1.5696                 2.9323                 1.3383
 Frc consts  --      1.0980                 2.1785                 1.0312
 IR Inten    --      0.7370               197.6271                 9.2272

                     28                     29                     30
                      A                      A                      A
 Frequencies --   1165.9346              1173.9973              1224.4494
 Red. masses --      1.3092                 1.3763                 1.7434
 Frc consts  --      1.0486                 1.1176                 1.5400
 IR Inten    --     12.2814                 3.1514                16.1905

                     31                     32                     33
                      A                      A                      A
 Frequencies --   1233.1865              1266.1055              1288.7535
 Red. masses --      2.4584                 1.4172                 1.4991
 Frc consts  --      2.2027                 1.3386                 1.4669
 IR Inten    --     44.7460                 1.8039                 4.4212

                     34                     35                     36
                      A                      A                      A
 Frequencies --   1306.0838              1316.2454              1349.9645
 Red. masses --      1.5707                 1.4757                 1.6330
 Frc consts  --      1.5786                 1.5063                 1.7534
 IR Inten    --     96.8726                12.5293                18.9745

                     37                     38                     39
                      A                      A                      A
 Frequencies --   1410.2703              1439.7664              1481.5265
 Red. masses --      1.8925                 1.2199                 1.0956
 Frc consts  --      2.2176                 1.4899                 1.4169
 IR Inten    --      7.0839                66.0649                 2.7278

                     40                     41                     42
                      A                      A                      A
 Frequencies --   1500.7075              1643.7337              3032.3349
 Red. masses --      1.1255                 6.1123                 1.0660
 Frc consts  --      1.4934                 9.7301                 5.7754
 IR Inten    --      2.1491                 1.1248                20.3273

                     43                     44                     45
                      A                      A                      A
 Frequencies --   3038.6110              3072.1656              3105.0957
 Red. masses --      1.0645                 1.0851                 1.0989
 Frc consts  --      5.7909                 6.0341                 6.2426
 IR Inten    --     40.6821                31.4883                20.7835

                     46                     47                     48
                      A                      A                      A
 Frequencies --   3114.3583              3118.2693              3200.4799
 Red. masses --      1.0995                 1.0915                 1.0861
 Frc consts  --      6.2831                 6.2532                 6.5545
 IR Inten    --     30.3946                30.9111                 4.5741

                     49                     50                     51
                      A                      A                      A
 Frequencies --   3226.7782              3781.0162              3812.1900
 Red. masses --      1.1066                 1.0653                 1.0658
 Frc consts  --      6.7885                 8.9734                 9.1262
 IR Inten    --      9.4937                14.2966                16.4370

 - Thermochemistry -
 -------------------
 Temperature   298.150 Kelvin.  Pressure   1.00000 Atm.
 Atom     1 has atomic number  8 and mass  15.99491

 Molecular mass:   126.06808 amu.
 Principal axes and moments of inertia in atomic units:
                           1         2         3
     Eigenvalues --   624.027841170.767471301.11160
           X            0.99974  -0.02086   0.00870
           Y            0.02117   0.99907  -0.03746
           Z           -0.00791   0.03763   0.99926
 This molecule is an asymmetric top.
 Rotational symmetry number  1.
 Warning -- assumption of classical behavior for rotation
           may cause significant error
 Rotational temperatures (Kelvin)      0.13880     0.07398     0.06657
 Rotational constants (GHZ):           2.89208     1.54150     1.38708
 Zero-point vibrational energy     422168.1 (Joules/Mol)
                                  100.90061 (Kcal/Mol)
 Warning -- explicit consideration of  10 degrees of freedom as
           vibrations may cause significant error
 Vibrational temperatures:    206.27   351.18   404.70   480.68   533.34
          (Kelvin)            552.31   612.02   680.92   709.19   743.30
                              904.65   969.64  1082.60  1095.62  1157.10
                             1197.38  1289.74  1342.12  1357.15  1367.59
                             1405.00  1435.71  1486.73  1544.40  1567.76
                             1615.64  1645.38  1677.52  1689.12  1761.71
                             1774.28  1821.64  1854.23  1879.16  1893.78
                             1942.30  2029.06  2071.50  2131.58  2159.18
                             2364.96  4362.85  4371.88  4420.16  4467.53
                             4480.86  4486.49  4604.77  4642.61  5440.03
                             5484.88

 Zero-point correction=                           0.160795 (Hartree/Particle)
 Thermal correction to Energy=                    0.168385
 Thermal correction to Enthalpy=                  0.169329
 Thermal correction to Gibbs Free Energy=         0.129395
 Sum of electronic and zero-point Energies=           -423.029493
 Sum of electronic and thermal Energies=              -423.021903
 Sum of electronic and thermal Enthalpies=            -423.020959
 Sum of electronic and thermal Free Energies=         -423.060893

                     E (Thermal)             CV                S
                      KCal/Mol        Cal/Mol-Kelvin    Cal/Mol-Kelvin
 Total                  105.663             31.756             84.048
 Electronic               0.000              0.000              0.000
 Translational            0.889              2.981             40.409
 Rotational               0.889              2.981             28.343
 Vibrational            103.886             25.794             15.296
 Vibration     1          0.616              1.910              2.759
 Vibration     2          0.659              1.773              1.773
 Vibration     3          0.681              1.708              1.526
 Vibration     4          0.716              1.607              1.240
 Vibration     5          0.743              1.532              1.077
 Vibration     6          0.753              1.505              1.024
 Vibration     7          0.787              1.415              0.874
 Vibration     8          0.830              1.309              0.728
 Vibration     9          0.849              1.266              0.676
 Vibration    10          0.872              1.213              0.618

 Normal termination of Gaussian 09 at Tue Jan 28 03:14:02 2020.
