 Gaussian 09, Revision D.01,
 Gaussian 09:  ES64L-G09RevD.01 24-Apr-2013

 -----------------------------
 # b3lyp 6-31G(2df,p) opt Freq
 -----------------------------

 -----
 titel
 -----
 Symbolic Z-matrix:
 Charge =  0 Multiplicity = 1

 SCF Done:  E(RB3LYP) =  -423.176520636     A.U. after   14 cycles
 Optimization completed.
    -- Stationary point found.
 Normal termination of Gaussian 09 at Tue Jan 28 12:44:12 2020.

 ----------------------------------------------------------------------
 #N Geom=AllCheck Guess=TCheck SCRF=Check GenChk RB3LYP/6-31G(2df,p) Fr
 eq
 ----------------------------------------------------------------------

 Structure from the checkpoint file:  "/scratch/puck/g09_db3f94b4-fcae-498c-8f6c-734f83307ee1/Gau-92352.chk"
 -----
 titel
 -----
 Charge =  0 Multiplicity = 1

                         Standard orientation:
 ---------------------------------------------------------------------
 Center     Atomic      Atomic             Coordinates (Angstroms)
 Number     Number       Type             X           Y           Z
 ---------------------------------------------------------------------
      1          6           0        2.799140   -0.887575   -0.136257
      2          6           0        1.454154   -0.248429    0.058879
      3          8           0        1.389978    0.823131    1.039839
      4          6           0        1.075085    1.126459   -0.322659
      5          6           0       -0.415407    1.152750   -0.630114
      6          6           0       -0.857704   -0.270629   -0.324965
      7          6           0       -2.302521   -0.666630   -0.349046
      8          8           0       -3.080690    0.097380    0.570375
      9          6           0        0.180334   -1.038149    0.027890
     10          1           0        2.834761   -1.437957   -1.082400
     11          1           0        3.586423   -0.129978   -0.139560
     12          1           0        3.013273   -1.595773    0.671930
     13          1           0        1.757704    1.814763   -0.815493
     14          1           0       -0.955449    1.883975   -0.019142
     15          1           0       -0.601650    1.414603   -1.680316
     16          1           0       -2.743910   -0.460791   -1.331779
     17          1           0       -2.400644   -1.746603   -0.162610
     18          1           0       -2.688975   -0.024694    1.442181
     19          1           0        0.125677   -2.088421    0.293108
 ---------------------------------------------------------------------

 SCF Done:  E(RB3LYP) =  -423.176520636     A.U. after    1 cycles

 The electronic state is 1-A.
 Alpha  occ. eigenvalues --  -19.14035 -19.13751 -10.23881 -10.23283 -10.23041
 Alpha  occ. eigenvalues --  -10.19278 -10.18904 -10.18460 -10.18435  -1.06178
 Alpha  occ. eigenvalues --   -1.01677  -0.82555  -0.75159  -0.71585  -0.68773
 Alpha  occ. eigenvalues --   -0.61967  -0.56768  -0.54141  -0.50785  -0.48343
 Alpha  occ. eigenvalues --   -0.45273  -0.44477  -0.43614  -0.42143  -0.40973
 Alpha  occ. eigenvalues --   -0.39135  -0.37470  -0.36891  -0.35273  -0.32999
 Alpha  occ. eigenvalues --   -0.30099  -0.27549  -0.25689  -0.24096
 Alpha virt. eigenvalues --   -0.00315   0.08742   0.10500   0.10788   0.12309
 Alpha virt. eigenvalues --    0.13464   0.14076   0.14575   0.14882   0.17197
 Alpha virt. eigenvalues --    0.17618   0.18294   0.20371   0.20870   0.21272

 Mulliken charges:
               1
     1  C   -0.492556
     2  C    0.406493
     3  O   -0.301755
     4  C   -0.030332
     5  C   -0.333077
     6  C    0.271993
     7  C   -0.157939
     8  O   -0.412670
     9  C   -0.254032
    10  H    0.124611
    11  H    0.131991
    12  H    0.128096
    13  H    0.090860
    14  H    0.133342
    15  H    0.109735
    16  H    0.111909
    17  H    0.092468
    18  H    0.285655
    19  H    0.095210
 Sum of Mulliken charges =   0.00000

 Dipole moment (field-independent basis, Debye):
    X=              0.8769    Y=             -1.2095    Z=             -1.2587  Tot=              1.9535
 Quadrupole moment (field-independent basis, Debye-Ang):
   XX=            -57.9853   YY=            -50.8401   ZZ=            -52.3196
   XY=              0.4203   XZ=             -2.7112   YZ=             -2.8825

  Exact polarizability:  94.529  -5.032  77.081   3.489  -4.280  60.932
 Approx polarizability: 125.143 -13.446 118.623   9.494  -5.930 100.134

                      1                      2                      3
                      A                      A                      A
 Frequencies --     69.2593               117.7487               188.2972
 Red. masses --      3.8424                 4.0756                 1.0853
 Frc consts  --      0.0109                 0.0333                 0.0227
 IR Inten    --      2.8973                 0.2108                 0.1952

                      4                      5                      6
                      A                      A                      A
 Frequencies --    228.6943               257.4782               264.4251
 Red. masses --      2.4694                 2.1110                 2.9244
 Frc consts  --      0.0761                 0.0825                 0.1205
 IR Inten    --      3.0797                 8.3786                 5.0974

                      7                      8                      9
                      A                      A                      A
 Frequencies --    352.0553               403.3365               436.2283
 Red. masses --      1.4434                 1.5852                 4.8524
 Frc consts  --      0.1054                 0.1519                 0.5440
 IR Inten    --     59.4113                58.0997                12.2562

                     10                     11                     12
                      A                      A                      A
 Frequencies --    481.9065               524.7189               612.8713
 Red. masses --      3.9608                 2.3797                 3.4786
 Frc consts  --      0.5419                 0.3860                 0.7698
 IR Inten    --      1.1159                13.8589                 3.7092

                     13                     14                     15
                      A                      A                      A
 Frequencies --    676.9183               730.7064               818.5758
 Red. masses --      4.1880                 5.0545                 3.3868
 Frc consts  --      1.1306                 1.5901                 1.3371
 IR Inten    --      5.1019                 3.5476                11.4104

                     16                     17                     18
                      A                      A                      A
 Frequencies --    869.9866               873.2929               913.6340
 Red. masses --      2.8605                 1.8264                 2.1710
 Frc consts  --      1.2756                 0.8206                 1.0677
 IR Inten    --      2.3725                32.4016                 9.2679

                     19                     20                     21
                      A                      A                      A
 Frequencies --    932.7093               976.7268               991.6216
 Red. masses --      1.9711                 1.5549                 1.8048
 Frc consts  --      1.0103                 0.8740                 1.0456
 IR Inten    --      3.6839                19.3024                10.8874

                     22                     23                     24
                      A                      A                      A
 Frequencies --   1031.4535              1049.5019              1067.7123
 Red. masses --      1.9176                 4.2318                 2.0452
 Frc consts  --      1.2020                 2.7463                 1.3737
 IR Inten    --      9.9203                51.9481                 0.3177

                     25                     26                     27
                      A                      A                      A
 Frequencies --   1102.1391              1162.9857              1177.1125
 Red. masses --      1.7470                 1.6316                 1.2895
 Frc consts  --      1.2503                 1.3002                 1.0527
 IR Inten    --     18.0388                 8.3045                13.5067

                     28                     29                     30
                      A                      A                      A
 Frequencies --   1193.5275              1242.5393              1293.0107
 Red. masses --      1.1760                 1.9642                 1.4702
 Frc consts  --      0.9870                 1.7867                 1.4482
 IR Inten    --     15.1583                18.4142                 4.8267

                     31                     32                     33
                      A                      A                      A
 Frequencies --   1320.3063              1337.3254              1367.6667
 Red. masses --      1.9854                 2.5762                 1.3562
 Frc consts  --      2.0391                 2.7146                 1.4947
 IR Inten    --     15.9479                 3.9061                 3.2655

                     34                     35                     36
                      A                      A                      A
 Frequencies --   1409.3906              1417.2622              1444.1307
 Red. masses --      1.3086                 1.2380                 2.9491
 Frc consts  --      1.5315                 1.4651                 3.6237
 IR Inten    --      3.1216                66.3334                17.9223

                     37                     38                     39
                      A                      A                      A
 Frequencies --   1461.2780              1484.7552              1494.9940
 Red. masses --      1.1174                 1.0928                 1.0833
 Frc consts  --      1.4058                 1.4194                 1.4265
 IR Inten    --      5.7037                 6.7251                 2.3257

                     40                     41                     42
                      A                      A                      A
 Frequencies --   1501.2783              1695.1849              2991.3306
 Red. masses --      1.0931                 7.5964                 1.0655
 Frc consts  --      1.4516                12.8616                 5.6174
 IR Inten    --      0.9854                 5.4238                58.2380

                     43                     44                     45
                      A                      A                      A
 Frequencies --   3025.7343              3035.0033              3052.7289
 Red. masses --      1.0661                 1.0366                 1.0964
 Frc consts  --      5.7508                 5.6257                 6.0198
 IR Inten    --     21.2487                21.2325                30.6010

                     46                     47                     48
                      A                      A                      A
 Frequencies --   3077.6776              3095.9214              3125.1660
 Red. masses --      1.0946                 1.1003                 1.1007
 Frc consts  --      6.1089                 6.2137                 6.3339
 IR Inten    --      7.9871                17.7557                11.8948

                     49                     50                     51
                      A                      A                      A
 Frequencies --   3140.0033              3190.3492              3803.7346
 Red. masses --      1.0910                 1.0940                 1.0662
 Frc consts  --      6.3380                 6.5608                 9.0891
 IR Inten    --     31.4183                10.3968                16.7390

 - Thermochemistry -
 -------------------
 Temperature   298.150 Kelvin.  Pressure   1.00000 Atm.
 Atom     1 has atomic number  6 and mass  12.00000

 Molecular mass:   126.06808 amu.
 Principal axes and moments of inertia in atomic units:
                           1         2         3
     Eigenvalues --   476.022561737.829741925.04887
           X            0.99994  -0.01033  -0.00386
           Y            0.01009   0.99826  -0.05815
           Z            0.00445   0.05811   0.99830
 This molecule is an asymmetric top.
 Rotational symmetry number  1.
 Warning -- assumption of classical behavior for rotation
           may cause significant error
 Rotational temperatures (Kelvin)      0.18195     0.04984     0.04499
 Rotational constants (GHZ):           3.79129     1.03850     0.93750
 Zero-point vibrational energy     415776.5 (Joules/Mol)
                                   99.37296 (Kcal/Mol)
 Warning -- explicit consideration of  12 degrees of freedom as
           vibrations may cause significant error
 Vibrational temperatures:     99.65   169.41   270.92   329.04   370.45
          (Kelvin)            380.45   506.53   580.31   627.63   693.36
                              754.95   881.78   973.93  1051.32  1177.75
                             1251.72  1256.47  1314.51  1341.96  1405.29
                             1426.72  1484.03  1510.00  1536.20  1585.73
                             1673.27  1693.60  1717.22  1787.73  1860.35
                             1899.62  1924.11  1967.76  2027.80  2039.12
                             2077.78  2102.45  2136.23  2150.96  2160.00
                             2438.99  4303.85  4353.35  4366.69  4392.19
                             4428.09  4454.33  4496.41  4517.76  4590.20
                             5472.72

 Zero-point correction=                           0.158361 (Hartree/Particle)
 Thermal correction to Energy=                    0.167129
 Thermal correction to Enthalpy=                  0.168074
 Thermal correction to Gibbs Free Energy=         0.124870
 Sum of electronic and zero-point Energies=           -423.018160
 Sum of electronic and thermal Energies=              -423.009391
 Sum of electronic and thermal Enthalpies=            -423.008447
 Sum of electronic and thermal Free Energies=         -423.051650

                     E (Thermal)             CV                S
                      KCal/Mol        Cal/Mol-Kelvin    Cal/Mol-Kelvin
 Total                  104.875             33.278             90.929
 Electronic               0.000              0.000              0.000
 Translational            0.889              2.981             40.409
 Rotational               0.889              2.981             28.856
 Vibrational            103.098             27.316             21.664
 Vibration     1          0.598              1.969              4.174
 Vibration     2          0.608              1.935              3.137
 Vibration     3          0.633              1.856              2.245
 Vibration     4          0.651              1.797              1.889
 Vibration     5          0.667              1.750              1.679
 Vibration     6          0.671              1.738              1.632
 Vibration     7          0.729              1.571              1.157
 Vibration     8          0.769              1.463              0.950
 Vibration     9          0.797              1.391              0.839
 Vibration    10          0.838              1.290              0.705
 Vibration    11          0.880              1.195              0.599
 Vibration    12          0.972              1.005              0.428

 Normal termination of Gaussian 09 at Tue Jan 28 14:10:09 2020.
