 Gaussian 09, Revision D.01,
 Gaussian 09:  ES64L-G09RevD.01 24-Apr-2013

 -----------------------------
 # b3lyp 6-31G(2df,p) opt Freq
 -----------------------------

 -----
 titel
 -----
 Symbolic Z-matrix:
 Charge =  0 Multiplicity = 1

 SCF Done:  E(RB3LYP) =  -423.158530701     A.U. after   13 cycles
 Optimization completed.
    -- Stationary point found.
 Normal termination of Gaussian 09 at Tue Jan 28 14:10:08 2020.

 ----------------------------------------------------------------------
 #N Geom=AllCheck Guess=TCheck SCRF=Check GenChk RB3LYP/6-31G(2df,p) Fr
 eq
 ----------------------------------------------------------------------

 Structure from the checkpoint file:  "/scratch/puck/g09_7628090c-bcd1-400d-b095-f9b3da16e7e7/Gau-144433.chk"
 -----
 titel
 -----
 Charge =  0 Multiplicity = 1

                         Standard orientation:
 ---------------------------------------------------------------------
 Center     Atomic      Atomic             Coordinates (Angstroms)
 Number     Number       Type             X           Y           Z
 ---------------------------------------------------------------------
      1          6           0       -3.511023   -0.217442   -0.149688
      2          8           0       -2.142453   -0.155979   -0.473695
      3          6           0       -1.370469    0.482248    0.528914
      4          6           0        0.070092    0.395328    0.145441
      5          6           0        0.969371    1.383386    0.100792
      6          6           0        2.346190    0.900923   -0.309301
      7          6           0        2.149795   -0.605071   -0.454077
      8          8           0        1.771993   -1.266532    0.754402
      9          6           0        0.733635   -0.906073   -0.190006
     10          1           0       -3.950285    0.786485   -0.036785
     11          1           0       -4.017764   -0.733644   -0.968552
     12          1           0       -3.685355   -0.773666    0.785222
     13          1           0       -1.678156    1.533492    0.652101
     14          1           0       -1.536552   -0.020488    1.499241
     15          1           0        0.768742    2.417430    0.361308
     16          1           0        2.669961    1.352515   -1.256016
     17          1           0        3.113235    1.140302    0.437238
     18          1           0        2.769973   -1.186198   -1.131200
     19          1           0        0.184333   -1.735930   -0.620664
 ---------------------------------------------------------------------

 SCF Done:  E(RB3LYP) =  -423.158530701     A.U. after    1 cycles

 The electronic state is 1-A.
 Alpha  occ. eigenvalues --  -19.14277 -19.14108 -10.23387 -10.23115 -10.22865
 Alpha  occ. eigenvalues --  -10.22590 -10.19116 -10.18772 -10.18683  -1.06165
 Alpha  occ. eigenvalues --   -1.03481  -0.82440  -0.75117  -0.69164  -0.65920
 Alpha  occ. eigenvalues --   -0.63654  -0.57880  -0.53870  -0.51698  -0.48358
 Alpha  occ. eigenvalues --   -0.47526  -0.45692  -0.43240  -0.41650  -0.40988
 Alpha  occ. eigenvalues --   -0.39177  -0.38283  -0.36599  -0.35422  -0.32245
 Alpha  occ. eigenvalues --   -0.30143  -0.26028  -0.25701  -0.23977
 Alpha virt. eigenvalues --    0.00191   0.08564   0.11316   0.11752   0.13447
 Alpha virt. eigenvalues --    0.13856   0.14318   0.14947   0.16017   0.16397
 Alpha virt. eigenvalues --    0.16863   0.17871   0.18281   0.20037   0.20572

 Mulliken charges:
               1
     1  C   -0.220834
     2  O   -0.236770
     3  C   -0.192590
     4  C    0.345497
     5  C   -0.194091
     6  C   -0.286684
     7  C    0.045843
     8  O   -0.261341
     9  C   -0.062415
    10  H    0.104327
    11  H    0.128295
    12  H    0.105313
    13  H    0.091778
    14  H    0.099330
    15  H    0.096375
    16  H    0.113531
    17  H    0.124845
    18  H    0.094631
    19  H    0.104958
 Sum of Mulliken charges =   0.00000

 Dipole moment (field-independent basis, Debye):
    X=             -0.8867    Y=              1.3480    Z=             -0.5540  Tot=              1.7059
 Quadrupole moment (field-independent basis, Debye-Ang):
   XX=            -46.9747   YY=            -52.4747   ZZ=            -54.7812
   XY=              2.7550   XZ=             -4.8698   YZ=              2.7135

  Exact polarizability: 100.535   7.446  76.472  -4.435   1.711  58.298
 Approx polarizability: 128.417  14.817 117.794  -4.531  -1.538  93.080

                      1                      2                      3
                      A                      A                      A
 Frequencies --     63.1770                88.3576               117.2322
 Red. masses --      3.2690                 2.2724                 3.5143
 Frc consts  --      0.0077                 0.0105                 0.0285
 IR Inten    --      0.2954                 4.4427                 3.4097

                      4                      5                      6
                      A                      A                      A
 Frequencies --    219.5878               244.0969               302.5405
 Red. masses --      1.6761                 1.9543                 2.3748
 Frc consts  --      0.0476                 0.0686                 0.1281
 IR Inten    --      0.9166                 2.6925                 0.7557

                      7                      8                      9
                      A                      A                      A
 Frequencies --    344.6072               363.1088               423.5779
 Red. masses --      3.2927                 2.6089                 3.7407
 Frc consts  --      0.2304                 0.2027                 0.3954
 IR Inten    --      1.0917                 2.3024                 8.1785

                     10                     11                     12
                      A                      A                      A
 Frequencies --    607.9376               669.6710               769.6376
 Red. masses --      4.1300                 5.0254                 4.0932
 Frc consts  --      0.8993                 1.3278                 1.4285
 IR Inten    --      1.3629                 5.2041                 2.1767

                     13                     14                     15
                      A                      A                      A
 Frequencies --    819.2693               824.4920               866.3281
 Red. masses --      1.5873                 3.1868                 2.4059
 Frc consts  --      0.6277                 1.2764                 1.0639
 IR Inten    --      2.8656                 8.8317                36.2720

                     16                     17                     18
                      A                      A                      A
 Frequencies --    886.9521               922.4585               951.4477
 Red. masses --      2.5941                 2.6166                 2.2298
 Frc consts  --      1.2024                 1.3118                 1.1893
 IR Inten    --     13.4174                 8.4800                13.8524

                     19                     20                     21
                      A                      A                      A
 Frequencies --    983.6672              1017.1917              1026.4687
 Red. masses --      3.4106                 2.0729                 1.6582
 Frc consts  --      1.9444                 1.2636                 1.0294
 IR Inten    --     15.0092                 8.5266                 5.1661

                     22                     23                     24
                      A                      A                      A
 Frequencies --   1050.5160              1107.9532              1146.4224
 Red. masses --      1.7161                 1.2740                 5.3031
 Frc consts  --      1.1158                 0.9214                 4.1065
 IR Inten    --      8.7172                 1.2445               158.0847

                     25                     26                     27
                      A                      A                      A
 Frequencies --   1182.5419              1183.8004              1199.4490
 Red. masses --      1.2748                 1.2024                 2.3037
 Frc consts  --      1.0503                 0.9928                 1.9527
 IR Inten    --      2.4665                 4.9626                29.1577

                     28                     29                     30
                      A                      A                      A
 Frequencies --   1220.9813              1243.9532              1249.5781
 Red. masses --      1.5327                 1.2308                 1.4186
 Frc consts  --      1.3463                 1.1222                 1.3051
 IR Inten    --     30.6800                 7.2482                 1.4667

                     31                     32                     33
                      A                      A                      A
 Frequencies --   1279.1309              1312.2498              1368.7969
 Red. masses --      1.3151                 1.7047                 2.0839
 Frc consts  --      1.2677                 1.7295                 2.3004
 IR Inten    --      4.7194                 6.4428                 2.9873

                     34                     35                     36
                      A                      A                      A
 Frequencies --   1409.0336              1410.5893              1459.5652
 Red. masses --      2.5678                 1.5860                 1.0996
 Frc consts  --      3.0037                 1.8593                 1.3802
 IR Inten    --     22.3023                45.3641                 3.5377

                     37                     38                     39
                      A                      A                      A
 Frequencies --   1478.7673              1484.7482              1499.9748
 Red. masses --      1.1515                 1.0543                 1.0708
 Frc consts  --      1.4836                 1.3694                 1.4195
 IR Inten    --      1.1023                 4.4602                 6.4451

                     40                     41                     42
                      A                      A                      A
 Frequencies --   1519.5563              1708.3823              2936.0934
 Red. masses --      1.0794                 7.5073                 1.0624
 Frc consts  --      1.4685                12.9093                 5.3958
 IR Inten    --      2.4227                 3.4408                36.9902

                     43                     44                     45
                      A                      A                      A
 Frequencies --   2969.1917              2983.1344              3013.2120
 Red. masses --      1.0409                 1.0914                 1.1031
 Frc consts  --      5.4069                 5.7226                 5.9011
 IR Inten    --     72.0589                58.4973                54.1925

                     46                     47                     48
                      A                      A                      A
 Frequencies --   3026.3899              3061.7327              3115.3036
 Red. masses --      1.0610                 1.1001                 1.0959
 Frc consts  --      5.7257                 6.0761                 6.2662
 IR Inten    --     29.0004                13.5375                28.2305

                     49                     50                     51
                      A                      A                      A
 Frequencies --   3149.1772              3184.0015              3186.8343
 Red. masses --      1.0901                 1.0927                 1.0940
 Frc consts  --      6.3695                 6.5267                 6.5461
 IR Inten    --     27.4478                21.7038                 7.7270

 - Thermochemistry -
 -------------------
 Temperature   298.150 Kelvin.  Pressure   1.00000 Atm.
 Atom     1 has atomic number  6 and mass  12.00000

 Molecular mass:   126.06808 amu.
 Principal axes and moments of inertia in atomic units:
                           1         2         3
     Eigenvalues --   443.646691921.042142162.12827
           X            0.99980   0.01380  -0.01432
           Y           -0.01315   0.99891   0.04478
           Z            0.01492  -0.04458   0.99889
 This molecule is an asymmetric top.
 Rotational symmetry number  1.
 Warning -- assumption of classical behavior for rotation
           may cause significant error
 Rotational temperatures (Kelvin)      0.19523     0.04509     0.04006
 Rotational constants (GHZ):           4.06797     0.93946     0.83471
 Zero-point vibrational energy     416616.7 (Joules/Mol)
                                   99.57377 (Kcal/Mol)
 Warning -- explicit consideration of  10 degrees of freedom as
           vibrations may cause significant error
 Vibrational temperatures:     90.90   127.13   168.67   315.94   351.20
          (Kelvin)            435.29   495.81   522.43   609.43   874.69
                              963.51  1107.34  1178.74  1186.26  1246.45
                             1276.12  1327.21  1368.92  1415.28  1463.51
                             1476.86  1511.46  1594.10  1649.44  1701.41
                             1703.22  1725.74  1756.72  1789.77  1797.86
                             1840.38  1888.03  1969.39  2027.28  2029.52
                             2099.99  2127.61  2136.22  2158.13  2186.30
                             2457.98  4224.38  4272.00  4292.06  4335.33
                             4354.29  4405.14  4482.22  4530.96  4581.06
                             4585.14

 Zero-point correction=                           0.158681 (Hartree/Particle)
 Thermal correction to Energy=                    0.167301
 Thermal correction to Enthalpy=                  0.168245
 Thermal correction to Gibbs Free Energy=         0.124657
 Sum of electronic and zero-point Energies=           -422.999850
 Sum of electronic and thermal Energies=              -422.991230
 Sum of electronic and thermal Enthalpies=            -422.990285
 Sum of electronic and thermal Free Energies=         -423.033874

                     E (Thermal)             CV                S
                      KCal/Mol        Cal/Mol-Kelvin    Cal/Mol-Kelvin
 Total                  104.983             31.614             91.740
 Electronic               0.000              0.000              0.000
 Translational            0.889              2.981             40.409
 Rotational               0.889              2.981             29.001
 Vibrational            103.206             25.653             22.330
 Vibration     1          0.597              1.972              4.355
 Vibration     2          0.601              1.957              3.696
 Vibration     3          0.608              1.935              3.146
 Vibration     4          0.647              1.811              1.962
 Vibration     5          0.659              1.773              1.773
 Vibration     6          0.694              1.669              1.403
 Vibration     7          0.723              1.586              1.191
 Vibration     8          0.737              1.548              1.109
 Vibration     9          0.786              1.419              0.880
 Vibration    10          0.967              1.015              0.436

 Normal termination of Gaussian 09 at Tue Jan 28 14:53:04 2020.
