 Gaussian 09, Revision D.01,
 Gaussian 09:  ES64L-G09RevD.01 24-Apr-2013

 -----------------------------
 # b3lyp 6-31G(2df,p) opt Freq
 -----------------------------

 -----
 titel
 -----
 Symbolic Z-matrix:
 Charge =  0 Multiplicity = 1

 SCF Done:  E(RB3LYP) =  -423.162494868     A.U. after   15 cycles
 SCF Done:  E(RB3LYP) =  -423.162494567     A.U. after    8 cycles
 SCF Done:  E(RB3LYP) =  -423.162494970     A.U. after    8 cycles
 SCF Done:  E(RB3LYP) =  -423.162493433     A.U. after    9 cycles
 SCF Done:  E(RB3LYP) =  -423.162495038     A.U. after    9 cycles
 SCF Done:  E(RB3LYP) =  -423.162495082     A.U. after    8 cycles
 SCF Done:  E(RB3LYP) =  -423.162495138     A.U. after    8 cycles
 SCF Done:  E(RB3LYP) =  -423.162495245     A.U. after   10 cycles
 SCF Done:  E(RB3LYP) =  -423.162495316     A.U. after   10 cycles
 SCF Done:  E(RB3LYP) =  -423.162495536     A.U. after   11 cycles
 SCF Done:  E(RB3LYP) =  -423.162496203     A.U. after   12 cycles
 SCF Done:  E(RB3LYP) =  -423.162496497     A.U. after    8 cycles
 SCF Done:  E(RB3LYP) =  -423.162496536     A.U. after   10 cycles
 Optimization completed.
    -- Stationary point found.
 Normal termination of Gaussian 09 at Mon Jan 27 15:07:09 2020.

 ----------------------------------------------------------------------
 #N Geom=AllCheck Guess=TCheck SCRF=Check GenChk RB3LYP/6-31G(2df,p) Fr
 eq
 ----------------------------------------------------------------------

 Structure from the checkpoint file:  "/scratch/puck/g09_053ee785-4a9d-427a-abff-0781a79d900d/Gau-49716.chk"
 -----
 titel
 -----
 Charge =  0 Multiplicity = 1

                         Standard orientation:
 ---------------------------------------------------------------------
 Center     Atomic      Atomic             Coordinates (Angstroms)
 Number     Number       Type             X           Y           Z
 ---------------------------------------------------------------------
      1          6           0       -3.054677    0.864697    0.707425
      2          6           0       -2.399301   -0.016996   -0.356638
      3          8           0       -2.784481   -1.359913   -0.070098
      4          6           0       -0.939355    0.133471   -0.385210
      5          6           0        0.261130    0.231183   -0.441935
      6          6           0        1.716756    0.329560   -0.448541
      7          6           0        2.203884    1.732989   -0.012917
      8          6           0        2.301388   -0.711236    0.512926
      9          8           0        3.193324   -1.463460    0.230309
     10          1           0       -2.674428    0.601686    1.697448
     11          1           0       -2.845194    1.919506    0.514026
     12          1           0       -4.135950    0.705620    0.691997
     13          1           0       -2.788712    0.282009   -1.344190
     14          1           0       -2.281110   -1.940821   -0.649984
     15          1           0        2.116285    0.099378   -1.442408
     16          1           0        1.889117    1.951957    1.011661
     17          1           0        3.294649    1.787068   -0.066408
     18          1           0        1.779157    2.496710   -0.668394
     19          1           0        1.836492   -0.698139    1.523903
 ---------------------------------------------------------------------

 SCF Done:  E(RB3LYP) =  -423.162496536     A.U. after    1 cycles

 The electronic state is 1-A.
 Alpha  occ. eigenvalues --  -19.14893 -19.14227 -10.27983 -10.26079 -10.22719
 Alpha  occ. eigenvalues --  -10.20084 -10.18928 -10.18423 -10.18278  -1.05679
 Alpha  occ. eigenvalues --   -1.02568  -0.82600  -0.78088  -0.72754  -0.67373
 Alpha  occ. eigenvalues --   -0.63218  -0.59057  -0.53911  -0.51280  -0.49064
 Alpha  occ. eigenvalues --   -0.46501  -0.44623  -0.43041  -0.41925  -0.39960
 Alpha  occ. eigenvalues --   -0.39080  -0.38377  -0.37937  -0.37488  -0.35419
 Alpha  occ. eigenvalues --   -0.29015  -0.28423  -0.26221  -0.25069
 Alpha virt. eigenvalues --   -0.03201   0.03359   0.04227   0.09065   0.10807
 Alpha virt. eigenvalues --    0.12161   0.13304   0.14667   0.15006   0.15914
 Alpha virt. eigenvalues --    0.16648   0.17167   0.17394   0.19644   0.20726

 Mulliken charges:
               1
     1  C   -0.371244
     2  C   -0.021022
     3  O   -0.416885
     4  C    0.081898
     5  C    0.018568
     6  C   -0.215801
     7  C   -0.397213
     8  C    0.173344
     9  O   -0.240826
    10  H    0.132723
    11  H    0.122653
    12  H    0.127989
    13  H    0.096146
    14  H    0.287874
    15  H    0.123919
    16  H    0.133690
    17  H    0.134922
    18  H    0.138835
    19  H    0.090430
 Sum of Mulliken charges =   0.00000

 Dipole moment (field-independent basis, Debye):
    X=             -0.7393    Y=              2.2083    Z=             -0.6702  Tot=              2.4233
 Quadrupole moment (field-independent basis, Debye-Ang):
   XX=            -61.1765   YY=            -53.9777   ZZ=            -51.3757
   XY=              4.5750   XZ=              1.9909   YZ=              1.9671

  Exact polarizability: 112.513  -1.478  72.736  -2.417   0.323  63.206
 Approx polarizability: 158.990  -4.137 103.465  -6.010   0.469  93.055

                      1                      2                      3
                      A                      A                      A
 Frequencies --      9.4949                45.9530                87.5236
 Red. masses --      3.3426                 7.4158                 3.5376
 Frc consts  --      0.0002                 0.0092                 0.0160
 IR Inten    --      0.7093                 3.4585                 0.8336

                      4                      5                      6
                      A                      A                      A
 Frequencies --     92.7126               180.7715               216.9763
 Red. masses --      3.3888                 3.1740                 1.3745
 Frc consts  --      0.0172                 0.0611                 0.0381
 IR Inten    --      3.1657                 2.1863                 1.5537

                      7                      8                      9
                      A                      A                      A
 Frequencies --    227.1797               254.8750               289.0671
 Red. masses --      1.1340                 2.0799                 1.7790
 Frc consts  --      0.0345                 0.0796                 0.0876
 IR Inten    --      1.6674                 3.9527                29.3225

                     10                     11                     12
                      A                      A                      A
 Frequencies --    302.5893               362.9086               433.1047
 Red. masses --      1.3342                 2.9344                 5.0700
 Frc consts  --      0.0720                 0.2277                 0.5603
 IR Inten    --     84.3888                12.4021                 8.6089

                     13                     14                     15
                      A                      A                      A
 Frequencies --    462.1871               490.5518               565.2257
 Red. masses --      3.9947                 4.2966                 5.3120
 Frc consts  --      0.5028                 0.6092                 0.9999
 IR Inten    --      8.1773                21.1528                 0.8968

                     16                     17                     18
                      A                      A                      A
 Frequencies --    602.3989               747.4483               875.0568
 Red. masses --      5.2745                 2.6032                 1.8446
 Frc consts  --      1.1277                 0.8569                 0.8322
 IR Inten    --      2.5853                 4.1850                22.8281

                     19                     20                     21
                      A                      A                      A
 Frequencies --    903.7636               931.2780               992.3626
 Red. masses --      2.0796                 2.3216                 2.0361
 Frc consts  --      1.0008                 1.1863                 1.1814
 IR Inten    --     10.6526                11.9687                34.0041

                     22                     23                     24
                      A                      A                      A
 Frequencies --   1049.2977              1077.9518              1087.0311
 Red. masses --      2.2710                 2.0317                 1.7900
 Frc consts  --      1.4732                 1.3909                 1.2462
 IR Inten    --     31.3946                 9.8889                 1.9074

                     25                     26                     27
                      A                      A                      A
 Frequencies --   1112.3245              1136.0714              1177.7310
 Red. masses --      2.4497                 2.0138                 2.0133
 Frc consts  --      1.7858                 1.5313                 1.6453
 IR Inten    --     33.2911                15.4570                 5.4608

                     28                     29                     30
                      A                      A                      A
 Frequencies --   1269.2423              1282.6527              1326.1735
 Red. masses --      1.4178                 1.1537                 1.4438
 Frc consts  --      1.3458                 1.1183                 1.4961
 IR Inten    --      3.9341                50.3781                20.2160

                     31                     32                     33
                      A                      A                      A
 Frequencies --   1355.7414              1393.2195              1397.7551
 Red. masses --      1.2482                 1.2953                 1.1865
 Frc consts  --      1.3517                 1.4814                 1.3658
 IR Inten    --     34.9532                37.2034                 1.9458

                     34                     35                     36
                      A                      A                      A
 Frequencies --   1411.5275              1416.7002              1483.0454
 Red. masses --      1.4591                 1.1892                 1.0495
 Frc consts  --      1.7129                 1.4062                 1.3599
 IR Inten    --     32.6538                 5.8536                 3.4246

                     37                     38                     39
                      A                      A                      A
 Frequencies --   1491.2577              1495.1370              1497.8210
 Red. masses --      1.0458                 1.0506                 1.0505
 Frc consts  --      1.3703                 1.3837                 1.3886
 IR Inten    --      5.8328                 2.2222                 2.2206

                     40                     41                     42
                      A                      A                      A
 Frequencies --   1839.6986              2351.3810              2888.1598
 Red. masses --     10.3077                11.9099                 1.0842
 Frc consts  --     20.5543                38.7976                 5.3285
 IR Inten    --    208.6110                 2.6615                74.8474

                     43                     44                     45
                      A                      A                      A
 Frequencies --   2958.2980              3045.3194              3052.2326
 Red. masses --      1.0810                 1.0342                 1.0338
 Frc consts  --      5.5739                 5.6508                 5.6743
 IR Inten    --     43.6954                18.4854                15.6268

                     46                     47                     48
                      A                      A                      A
 Frequencies --   3053.1890              3123.0364              3131.0557
 Red. masses --      1.0820                 1.1026                 1.1032
 Frc consts  --      5.9430                 6.3359                 6.3720
 IR Inten    --      6.8726                18.8236                12.5321

                     49                     50                     51
                      A                      A                      A
 Frequencies --   3132.7508              3136.3415              3818.1106
 Red. masses --      1.1029                 1.1029                 1.0663
 Frc consts  --      6.3775                 6.3921                 9.1585
 IR Inten    --     18.3777                17.2130                20.4707

 - Thermochemistry -
 -------------------
 Temperature   298.150 Kelvin.  Pressure   1.00000 Atm.
 Atom     1 has atomic number  6 and mass  12.00000

 Molecular mass:   126.06808 amu.
 Principal axes and moments of inertia in atomic units:
                           1         2         3
     Eigenvalues --   602.990412635.402803024.85806
           X            0.99993   0.01125  -0.00479
           Y           -0.01114   0.99970   0.02181
           Z            0.00504  -0.02176   0.99975
 This molecule is an asymmetric top.
 Rotational symmetry number  1.
 Warning -- assumption of classical behavior for rotation
           may cause significant error
 Rotational temperatures (Kelvin)      0.14364     0.03287     0.02863
 Rotational constants (GHZ):           2.99298     0.68481     0.59664
 Zero-point vibrational energy     407111.2 (Joules/Mol)
                                   97.30192 (Kcal/Mol)
 Warning -- explicit consideration of  16 degrees of freedom as
           vibrations may cause significant error
 Vibrational temperatures:     13.66    66.12   125.93   133.39   260.09
          (Kelvin)            312.18   326.86   366.71   415.90   435.36
                              522.14   623.14   664.98   705.79   813.23
                              866.72  1075.41  1259.01  1300.31  1339.90
                             1427.79  1509.70  1550.93  1563.99  1600.38
                             1634.55  1694.49  1826.15  1845.45  1908.07
                             1950.61  2004.53  2011.06  2030.87  2038.31
                             2133.77  2145.58  2151.17  2155.03  2646.91
                             3383.11  4155.41  4256.33  4381.53  4391.48
                             4392.85  4493.35  4504.89  4507.32  4512.49
                             5493.40

 Zero-point correction=                           0.155060 (Hartree/Particle)
 Thermal correction to Energy=                    0.166127
 Thermal correction to Enthalpy=                  0.167072
 Thermal correction to Gibbs Free Energy=         0.116097
 Sum of electronic and zero-point Energies=           -423.007436
 Sum of electronic and thermal Energies=              -422.996369
 Sum of electronic and thermal Enthalpies=            -422.995425
 Sum of electronic and thermal Free Energies=         -423.046399

                     E (Thermal)             CV                S
                      KCal/Mol        Cal/Mol-Kelvin    Cal/Mol-Kelvin
 Total                  104.247             37.726            107.285
 Electronic               0.000              0.000              0.000
 Translational            0.889              2.981             40.409
 Rotational               0.889              2.981             29.954
 Vibrational            102.469             31.764             36.922
 Vibration     1          0.593              1.987              8.114
 Vibration     2          0.595              1.979              4.984
 Vibration     3          0.601              1.958              3.715
 Vibration     4          0.602              1.954              3.602
 Vibration     5          0.630              1.866              2.320
 Vibration     6          0.646              1.815              1.984
 Vibration     7          0.651              1.800              1.901
 Vibration     8          0.665              1.755              1.697
 Vibration     9          0.686              1.694              1.479
 Vibration    10          0.694              1.669              1.403
 Vibration    11          0.737              1.549              1.110
 Vibration    12          0.794              1.398              0.849
 Vibration    13          0.820              1.334              0.760
 Vibration    14          0.846              1.271              0.682
 Vibration    15          0.921              1.106              0.514
 Vibration    16          0.961              1.027              0.446

 Normal termination of Gaussian 09 at Mon Jan 27 15:36:55 2020.
