 Gaussian 09, Revision D.01,
 Gaussian 09:  ES64L-G09RevD.01 24-Apr-2013

 -----------------------------
 # b3lyp 6-31G(2df,p) opt Freq
 -----------------------------

 -----
 titel
 -----
 Symbolic Z-matrix:
 Charge =  0 Multiplicity = 1

 SCF Done:  E(RB3LYP) =  -423.191965887     A.U. after   14 cycles
 Optimization completed.
    -- Stationary point found.
 Normal termination of Gaussian 09 at Mon Jan 27 13:09:50 2020.

 ----------------------------------------------------------------------
 #N Geom=AllCheck Guess=TCheck SCRF=Check GenChk RB3LYP/6-31G(2df,p) Fr
 eq
 ----------------------------------------------------------------------

 Structure from the checkpoint file:  "/scratch/puck/g09_4ae00c59-d5cc-4e0a-8ed2-c49a9e200ffe/Gau-28010.chk"
 -----
 titel
 -----
 Charge =  0 Multiplicity = 1

                         Standard orientation:
 ---------------------------------------------------------------------
 Center     Atomic      Atomic             Coordinates (Angstroms)
 Number     Number       Type             X           Y           Z
 ---------------------------------------------------------------------
      1          8           0        2.595371   -0.237237   -0.053460
      2          6           0        1.396830   -0.076254   -0.002449
      3          6           0        0.838130    1.337087    0.243922
      4          8           0       -0.376439    1.638996   -0.406472
      5          6           0       -1.548800    1.070213    0.151408
      6          6           0       -1.605936   -0.461854    0.076857
      7          6           0       -0.637290   -1.189584    1.047592
      8          6           0        0.426540   -1.234565   -0.098147
      9          6           0       -0.758103   -1.023561   -1.099646
     10          1           0        0.751225    1.480921    1.335884
     11          1           0        1.585165    2.044780   -0.122563
     12          1           0       -1.674963    1.401219    1.196423
     13          1           0       -2.367121    1.498086   -0.436299
     14          1           0       -2.653079   -0.773516    0.129549
     15          1           0       -0.367023   -0.687220    1.981307
     16          1           0       -0.985306   -2.197595    1.284738
     17          1           0        1.012768   -2.147795   -0.205041
     18          1           0       -0.589559   -0.371444   -1.957389
     19          1           0       -1.131781   -1.990416   -1.444383
 ---------------------------------------------------------------------

 SCF Done:  E(RB3LYP) =  -423.191965887     A.U. after    1 cycles

 The electronic state is 1-A.
 Alpha  occ. eigenvalues --  -19.15166 -19.12803 -10.26518 -10.23721 -10.23664
 Alpha  occ. eigenvalues --  -10.19918 -10.19808 -10.19714 -10.19408  -1.04824
 Alpha  occ. eigenvalues --   -1.03416  -0.86172  -0.76317  -0.68635  -0.67179
 Alpha  occ. eigenvalues --   -0.65906  -0.56001  -0.53645  -0.50741  -0.49720
 Alpha  occ. eigenvalues --   -0.47630  -0.45711  -0.43504  -0.42512  -0.40714
 Alpha  occ. eigenvalues --   -0.40163  -0.37331  -0.36346  -0.34636  -0.31677
 Alpha  occ. eigenvalues --   -0.31537  -0.30716  -0.28355  -0.23094
 Alpha virt. eigenvalues --   -0.01675   0.06911   0.08701   0.10958   0.12533
 Alpha virt. eigenvalues --    0.13736   0.13930   0.14396   0.15183   0.16325
 Alpha virt. eigenvalues --    0.17519   0.19034   0.19591   0.20224   0.23589

 Mulliken charges:
               1
     1  O   -0.314072
     2  C    0.374916
     3  C   -0.180722
     4  O   -0.235022
     5  C   -0.090321
     6  C   -0.017643
     7  C   -0.249655
     8  C   -0.101790
     9  C   -0.239764
    10  H    0.110280
    11  H    0.136543
    12  H    0.091715
    13  H    0.113304
    14  H    0.073251
    15  H    0.101440
    16  H    0.111810
    17  H    0.087970
    18  H    0.120967
    19  H    0.106794
 Sum of Mulliken charges =   0.00000

 Dipole moment (field-independent basis, Debye):
    X=             -3.0336    Y=             -0.6106    Z=              0.9283  Tot=              3.2306
 Quadrupole moment (field-independent basis, Debye-Ang):
   XX=            -59.8133   YY=            -52.7290   ZZ=            -52.0895
   XY=              2.3678   XZ=              0.1763   YZ=              1.5887

  Exact polarizability:  85.052   0.979  74.409  -0.206   1.631  64.902
 Approx polarizability: 125.837  -0.115 103.464  -0.752   0.459 100.573

                      1                      2                      3
                      A                      A                      A
 Frequencies --     85.3688               211.3841               280.5042
 Red. masses --      4.1870                 2.4317                 3.3563
 Frc consts  --      0.0180                 0.0640                 0.1556
 IR Inten    --      3.3333                 0.4971                 5.2311

                      4                      5                      6
                      A                      A                      A
 Frequencies --    309.9597               332.5620               384.4522
 Red. masses --      4.1940                 2.9660                 1.9082
 Frc consts  --      0.2374                 0.1933                 0.1662
 IR Inten    --      4.8531                 1.5965                 1.6976

                      7                      8                      9
                      A                      A                      A
 Frequencies --    441.0447               486.7257               559.1706
 Red. masses --      4.7788                 2.7943                 2.5632
 Frc consts  --      0.5477                 0.3900                 0.4722
 IR Inten    --     12.7478                 1.9491                 3.5403

                     10                     11                     12
                      A                      A                      A
 Frequencies --    639.2632               745.0673               786.2699
 Red. masses --      4.1945                 3.0064                 3.0137
 Frc consts  --      1.0099                 0.9833                 1.0977
 IR Inten    --      3.3933                20.0459                 1.6911

                     13                     14                     15
                      A                      A                      A
 Frequencies --    800.2952               860.6914               908.7292
 Red. masses --      1.6178                 4.4351                 2.1571
 Frc consts  --      0.6105                 1.9357                 1.0495
 IR Inten    --      0.2844                 3.0540                 0.9471

                     16                     17                     18
                      A                      A                      A
 Frequencies --    916.6011               943.2258               959.1576
 Red. masses --      2.3591                 2.9884                 2.2438
 Frc consts  --      1.1678                 1.5664                 1.2162
 IR Inten    --      1.1511                20.8420                 6.9344

                     19                     20                     21
                      A                      A                      A
 Frequencies --    989.2469              1049.2477              1061.4316
 Red. masses --      1.6023                 1.8753                 2.0207
 Frc consts  --      0.9239                 1.2164                 1.3413
 IR Inten    --      3.5544                 2.4618                11.7519

                     22                     23                     24
                      A                      A                      A
 Frequencies --   1080.7828              1110.7577              1130.0251
 Red. masses --      2.3841                 1.7425                 1.5241
 Frc consts  --      1.6408                 1.2666                 1.1467
 IR Inten    --      5.0943                16.1949                15.4100

                     25                     26                     27
                      A                      A                      A
 Frequencies --   1170.7379              1190.2289              1241.0262
 Red. masses --      1.6458                 1.7153                 1.4134
 Frc consts  --      1.3291                 1.4317                 1.2825
 IR Inten    --     30.2567                24.5304                 5.8497

                     28                     29                     30
                      A                      A                      A
 Frequencies --   1255.7241              1261.2889              1280.6011
 Red. masses --      1.7728                 1.3844                 1.5193
 Frc consts  --      1.6470                 1.2976                 1.4680
 IR Inten    --     32.1012                 4.5094                 3.1218

                     31                     32                     33
                      A                      A                      A
 Frequencies --   1293.4476              1327.0540              1337.0379
 Red. masses --      1.5728                 1.4901                 1.3322
 Frc consts  --      1.5503                 1.5461                 1.4031
 IR Inten    --     28.2562                 4.7801                 2.4993

                     34                     35                     36
                      A                      A                      A
 Frequencies --   1354.4821              1367.3201              1409.9519
 Red. masses --      1.5912                 1.2948                 1.2622
 Frc consts  --      1.7200                 1.4262                 1.4784
 IR Inten    --      1.1976                 6.1112                 4.2460

                     37                     38                     39
                      A                      A                      A
 Frequencies --   1460.3525              1473.6074              1489.5972
 Red. masses --      1.0798                 1.0846                 1.0983
 Frc consts  --      1.3568                 1.3876                 1.4359
 IR Inten    --      4.4561                 6.0302                 5.2338

                     40                     41                     42
                      A                      A                      A
 Frequencies --   1501.5228              1801.9489              2952.5463
 Red. masses --      1.1128                11.6504                 1.0700
 Frc consts  --      1.4782                22.2883                 5.4956
 IR Inten    --      2.6614               178.7276                23.8125

                     43                     44                     45
                      A                      A                      A
 Frequencies --   2963.8128              3052.9573              3060.6512
 Red. masses --      1.0702                 1.0635                 1.0806
 Frc consts  --      5.5389                 5.8404                 5.9639
 IR Inten    --     61.5185                22.6726                37.6640

                     46                     47                     48
                      A                      A                      A
 Frequencies --   3073.6858              3079.8190              3104.7167
 Red. masses --      1.0681                 1.0865                 1.0952
 Frc consts  --      5.9456                 6.0717                 6.2202
 IR Inten    --     11.3366                58.4858                11.2712

                     49                     50                     51
                      A                      A                      A
 Frequencies --   3108.8933              3113.5330              3135.2903
 Red. masses --      1.0913                 1.0979                 1.1070
 Frc consts  --      6.2146                 6.2709                 6.4113
 IR Inten    --     18.2169                25.6923                14.6831

 - Thermochemistry -
 -------------------
 Temperature   298.150 Kelvin.  Pressure   1.00000 Atm.
 Atom     1 has atomic number  8 and mass  15.99491

 Molecular mass:   126.06808 amu.
 Principal axes and moments of inertia in atomic units:
                           1         2         3
     Eigenvalues --   719.167461015.472161402.13720
           X            0.99922   0.03958   0.00036
           Y           -0.03958   0.99896   0.02272
           Z            0.00054  -0.02271   0.99974
 This molecule is an asymmetric top.
 Rotational symmetry number  1.
 Warning -- assumption of classical behavior for rotation
           may cause significant error
 Rotational temperatures (Kelvin)      0.12044     0.08529     0.06177
 Rotational constants (GHZ):           2.50949     1.77724     1.28714
 Zero-point vibrational energy     424278.3 (Joules/Mol)
                                  101.40496 (Kcal/Mol)
 Warning -- explicit consideration of   9 degrees of freedom as
           vibrations may cause significant error
 Vibrational temperatures:    122.83   304.13   403.58   445.96   478.48
          (Kelvin)            553.14   634.56   700.29   804.52   919.76
                             1071.98  1131.27  1151.44  1238.34  1307.46
                             1318.78  1357.09  1380.01  1423.30  1509.63
                             1527.16  1555.00  1598.13  1625.85  1684.43
                             1712.47  1785.56  1806.70  1814.71  1842.50
                             1860.98  1909.33  1923.70  1948.80  1967.27
                             2028.60  2101.12  2120.19  2143.20  2160.35
                             2592.60  4248.05  4264.26  4392.52  4403.59
                             4422.34  4431.17  4466.99  4473.00  4479.67
                             4510.98

 Zero-point correction=                           0.161599 (Hartree/Particle)
 Thermal correction to Energy=                    0.168975
 Thermal correction to Enthalpy=                  0.169919
 Thermal correction to Gibbs Free Energy=         0.129823
 Sum of electronic and zero-point Energies=           -423.030367
 Sum of electronic and thermal Energies=              -423.022991
 Sum of electronic and thermal Enthalpies=            -423.022047
 Sum of electronic and thermal Free Energies=         -423.062143

                     E (Thermal)             CV                S
                      KCal/Mol        Cal/Mol-Kelvin    Cal/Mol-Kelvin
 Total                  106.033             29.486             84.389
 Electronic               0.000              0.000              0.000
 Translational            0.889              2.981             40.409
 Rotational               0.889              2.981             28.417
 Vibrational            104.256             23.524             15.563
 Vibration     1          0.601              1.959              3.764
 Vibration     2          0.643              1.823              2.032
 Vibration     3          0.680              1.710              1.531
 Vibration     4          0.699              1.655              1.363
 Vibration     5          0.715              1.610              1.248
 Vibration     6          0.753              1.503              1.022
 Vibration     7          0.801              1.381              0.823
 Vibration     8          0.843              1.279              0.692
 Vibration     9          0.915              1.120              0.525

 Optimization completed.
    -- Stationary point found.
 Normal termination of Gaussian 09 at Mon Jan 27 14:34:28 2020.
