 Gaussian 09, Revision D.01,
 Gaussian 09:  ES64L-G09RevD.01 24-Apr-2013

 -----------------------------
 # b3lyp 6-31G(2df,p) opt Freq
 -----------------------------

 -----
 titel
 -----
 Symbolic Z-matrix:
 Charge =  0 Multiplicity = 1

 SCF Done:  E(RB3LYP) =  -423.158993555     A.U. after   13 cycles
 Optimization completed.
    -- Stationary point found.
 Normal termination of Gaussian 09 at Mon Jan 27 11:21:15 2020.

 ----------------------------------------------------------------------
 #N Geom=AllCheck Guess=TCheck SCRF=Check GenChk RB3LYP/6-31G(2df,p) Fr
 eq
 ----------------------------------------------------------------------

 Structure from the checkpoint file:  "/scratch/puck/g09_422635b0-b14a-41e7-93ad-ab7173a6893d/Gau-131288.chk"
 -----
 titel
 -----
 Charge =  0 Multiplicity = 1

                         Standard orientation:
 ---------------------------------------------------------------------
 Center     Atomic      Atomic             Coordinates (Angstroms)
 Number     Number       Type             X           Y           Z
 ---------------------------------------------------------------------
      1          6           0        1.975409   -0.748305   -0.739314
      2          8           0        2.422601   -0.016203    0.409592
      3          6           0        1.067722    0.117589    0.017846
      4          6           0        0.433069    1.457940   -0.364853
      5          6           0       -0.827101    1.056178    0.463995
      6          8           0       -1.964686    0.669605   -0.284362
      7          6           0       -1.811964   -0.690208   -0.682149
      8          6           0       -1.044645   -1.372565    0.461743
      9          6           0       -0.109999   -0.255535    0.935256
     10          1           0        2.373186   -0.407825   -1.695001
     11          1           0        1.934016   -1.829935   -0.613981
     12          1           0        0.975624    2.310049    0.053736
     13          1           0        0.248435    1.635409   -1.427300
     14          1           0       -1.149950    1.780006    1.213930
     15          1           0       -2.810081   -1.100712   -0.855213
     16          1           0       -1.245665   -0.760778   -1.624443
     17          1           0       -1.732404   -1.650144    1.266576
     18          1           0       -0.518818   -2.274185    0.136210
     19          1           0        0.167385   -0.319665    1.988498
 ---------------------------------------------------------------------

 SCF Done:  E(RB3LYP) =  -423.158993555     A.U. after    1 cycles

 The electronic state is 1-A.
 Alpha  occ. eigenvalues --  -19.15060 -19.13901 -10.24101 -10.23344 -10.23188
 Alpha  occ. eigenvalues --  -10.22934 -10.19088 -10.19017 -10.18162  -1.07185
 Alpha  occ. eigenvalues --   -1.03742  -0.83108  -0.76715  -0.68051  -0.66301
 Alpha  occ. eigenvalues --   -0.62523  -0.58074  -0.53811  -0.51447  -0.49783
 Alpha  occ. eigenvalues --   -0.47659  -0.46535  -0.43320  -0.42813  -0.40217
 Alpha  occ. eigenvalues --   -0.38488  -0.36629  -0.36175  -0.34319  -0.32165
 Alpha  occ. eigenvalues --   -0.31126  -0.28642  -0.26227  -0.24770
 Alpha virt. eigenvalues --    0.06235   0.08534   0.10514   0.11529   0.12594
 Alpha virt. eigenvalues --    0.13133   0.14387   0.14724   0.15412   0.17032
 Alpha virt. eigenvalues --    0.17754   0.18392   0.19046   0.20658   0.21277

 Mulliken charges:
               1
     1  C   -0.268599
     2  O   -0.274834
     3  C    0.447815
     4  C   -0.343521
     5  C    0.106845
     6  O   -0.257511
     7  C   -0.086079
     8  C   -0.236433
     9  C   -0.138730
    10  H    0.115256
    11  H    0.113641
    12  H    0.117806
    13  H    0.112398
    14  H    0.084905
    15  H    0.110933
    16  H    0.093466
    17  H    0.110846
    18  H    0.104387
    19  H    0.087407
 Sum of Mulliken charges =   0.00000

 Dipole moment (field-independent basis, Debye):
    X=             -0.4828    Y=             -1.2080    Z=             -0.5486  Tot=              1.4119
 Quadrupole moment (field-independent basis, Debye-Ang):
   XX=            -60.8926   YY=            -50.5903   ZZ=            -51.1068
   XY=              2.0184   XZ=             -3.7401   YZ=              1.5148

  Exact polarizability:  78.628   0.787  75.357  -3.528   2.343  68.032
 Approx polarizability: 109.363  -1.298 108.117  -1.475   5.205 103.785

                      1                      2                      3
                      A                      A                      A
 Frequencies --     62.2427               183.1896               242.6081
 Red. masses --      3.5862                 2.7738                 2.1145
 Frc consts  --      0.0082                 0.0548                 0.0733
 IR Inten    --      2.1603                 0.3466                 0.3641

                      4                      5                      6
                      A                      A                      A
 Frequencies --    293.0082               338.9093               387.9954
 Red. masses --      3.7402                 3.0216                 3.0076
 Frc consts  --      0.1892                 0.2045                 0.2668
 IR Inten    --      8.9814                 2.7563                 1.2207

                      7                      8                      9
                      A                      A                      A
 Frequencies --    453.5799               535.5299               636.1978
 Red. masses --      2.1571                 4.3552                 2.2032
 Frc consts  --      0.2615                 0.7359                 0.5254
 IR Inten    --      4.2845                 3.8275                 0.0245

                     10                     11                     12
                      A                      A                      A
 Frequencies --    682.6327               782.6200               824.6556
 Red. masses --      4.2842                 2.2733                 3.2174
 Frc consts  --      1.1762                 0.8204                 1.2892
 IR Inten    --      1.7155                11.1967                31.1057

                     13                     14                     15
                      A                      A                      A
 Frequencies --    852.7842               864.9265               894.8436
 Red. masses --      2.1843                 2.0144                 1.7205
 Frc consts  --      0.9359                 0.8879                 0.8117
 IR Inten    --      4.3410                 3.3601                 2.4931

                     16                     17                     18
                      A                      A                      A
 Frequencies --    898.6144               927.1663               957.7477
 Red. masses --      3.1831                 3.4421                 2.4797
 Frc consts  --      1.5144                 1.7433                 1.3401
 IR Inten    --      2.4934                13.4095                18.8670

                     19                     20                     21
                      A                      A                      A
 Frequencies --    983.0025              1008.5274              1037.0069
 Red. masses --      2.5111                 2.1563                 2.1470
 Frc consts  --      1.4296                 1.2922                 1.3603
 IR Inten    --     10.7447                 9.1973                 7.3856

                     22                     23                     24
                      A                      A                      A
 Frequencies --   1059.2313              1122.6889              1127.7952
 Red. masses --      1.3719                 2.0724                 1.7267
 Frc consts  --      0.9069                 1.5390                 1.2940
 IR Inten    --     10.8116                51.1050                31.2139

                     25                     26                     27
                      A                      A                      A
 Frequencies --   1139.3410              1159.6637              1168.0572
 Red. masses --      1.9358                 1.4915                 1.9059
 Frc consts  --      1.4805                 1.1818                 1.5321
 IR Inten    --     12.8318                 1.1865                10.2395

                     28                     29                     30
                      A                      A                      A
 Frequencies --   1201.9873              1216.6919              1228.9604
 Red. masses --      1.6088                 1.4617                 1.3750
 Frc consts  --      1.3694                 1.2749                 1.2236
 IR Inten    --      7.6185                 7.7153                 4.5750

                     31                     32                     33
                      A                      A                      A
 Frequencies --   1262.5195              1265.5168              1289.3030
 Red. masses --      1.5748                 1.6226                 1.5004
 Frc consts  --      1.4789                 1.5311                 1.4695
 IR Inten    --      6.0204                 3.5581                 3.6728

                     34                     35                     36
                      A                      A                      A
 Frequencies --   1331.2848              1352.4758              1393.7329
 Red. masses --      1.4069                 1.2611                 1.3763
 Frc consts  --      1.4691                 1.3591                 1.5751
 IR Inten    --      0.9351                11.0741                10.3848

                     37                     38                     39
                      A                      A                      A
 Frequencies --   1423.9524              1462.8337              1480.8199
 Red. masses --      2.0836                 1.1805                 1.1091
 Frc consts  --      2.4892                 1.4884                 1.4329
 IR Inten    --     14.1637                 5.9973                 2.9701

                     40                     41                     42
                      A                      A                      A
 Frequencies --   1522.7453              1532.7784              2979.3973
 Red. masses --      1.0936                 1.5228                 1.0716
 Frc consts  --      1.4941                 2.1079                 5.6044
 IR Inten    --      0.8681                 6.6656                52.0458

                     43                     44                     45
                      A                      A                      A
 Frequencies --   3053.9992              3060.7985              3076.0545
 Red. masses --      1.0610                 1.0588                 1.0501
 Frc consts  --      5.8303                 5.8441                 5.8544
 IR Inten    --     19.5273                15.3869                21.6572

                     46                     47                     48
                      A                      A                      A
 Frequencies --   3091.6788              3094.3070              3104.3801
 Red. masses --      1.0897                 1.0907                 1.0981
 Frc consts  --      6.1370                 6.1529                 6.2351
 IR Inten    --     42.3786                24.7866                 8.3863

                     49                     50                     51
                      A                      A                      A
 Frequencies --   3108.5327              3119.3509              3161.2641
 Red. masses --      1.0955                 1.1066                 1.1191
 Frc consts  --      6.2368                 6.3442                 6.5892
 IR Inten    --     37.4892                17.8600                22.3154

 - Thermochemistry -
 -------------------
 Temperature   298.150 Kelvin.  Pressure   1.00000 Atm.
 Atom     1 has atomic number  6 and mass  12.00000

 Molecular mass:   126.06808 amu.
 Principal axes and moments of inertia in atomic units:
                           1         2         3
     Eigenvalues --   555.996221260.911381466.32129
           X            0.99963   0.02125  -0.01683
           Y           -0.02100   0.99967   0.01495
           Z            0.01714  -0.01459   0.99975
 This molecule is an asymmetric top.
 Rotational symmetry number  1.
 Warning -- assumption of classical behavior for rotation
           may cause significant error
 Rotational temperatures (Kelvin)      0.15578     0.06869     0.05907
 Rotational constants (GHZ):           3.24596     1.43130     1.23080
 Zero-point vibrational energy     421324.3 (Joules/Mol)
                                  100.69894 (Kcal/Mol)
 Warning -- explicit consideration of   8 degrees of freedom as
           vibrations may cause significant error
 Vibrational temperatures:     89.55   263.57   349.06   421.57   487.61
          (Kelvin)            558.24   652.60   770.51   915.35   982.16
                             1126.01  1186.49  1226.96  1244.43  1287.48
                             1292.90  1333.98  1377.98  1414.32  1451.04
                             1492.02  1524.00  1615.30  1622.64  1639.26
                             1668.50  1680.57  1729.39  1750.55  1768.20
                             1816.48  1820.79  1855.02  1915.42  1945.91
                             2005.27  2048.75  2104.69  2130.57  2190.89
                             2205.32  4286.68  4394.02  4403.80  4425.75
                             4448.23  4452.01  4466.50  4472.48  4488.04
                             4548.35

 Zero-point correction=                           0.160474 (Hartree/Particle)
 Thermal correction to Energy=                    0.167907
 Thermal correction to Enthalpy=                  0.168851
 Thermal correction to Gibbs Free Energy=         0.128344
 Sum of electronic and zero-point Energies=           -422.998520
 Sum of electronic and thermal Energies=              -422.991086
 Sum of electronic and thermal Enthalpies=            -422.990142
 Sum of electronic and thermal Free Energies=         -423.030650

                     E (Thermal)             CV                S
                      KCal/Mol        Cal/Mol-Kelvin    Cal/Mol-Kelvin
 Total                  105.363             29.484             85.255
 Electronic               0.000              0.000              0.000
 Translational            0.889              2.981             40.409
 Rotational               0.889              2.981             28.421
 Vibrational            103.586             23.523             16.425
 Vibration     1          0.597              1.972              4.385
 Vibration     2          0.631              1.863              2.296
 Vibration     3          0.659              1.775              1.784
 Vibration     4          0.688              1.687              1.457
 Vibration     5          0.719              1.598              1.217
 Vibration     6          0.756              1.496              1.008
 Vibration     7          0.812              1.353              0.785
 Vibration     8          0.891              1.171              0.575

 Optimization completed.
    -- Stationary point found.
 Normal termination of Gaussian 09 at Mon Jan 27 12:16:09 2020.
