 Gaussian 09, Revision D.01,
 Gaussian 09:  ES64L-G09RevD.01 24-Apr-2013

 -----------------------------
 # b3lyp 6-31G(2df,p) opt Freq
 -----------------------------

 -----
 titel
 -----
 Symbolic Z-matrix:
 Charge =  0 Multiplicity = 1

 SCF Done:  E(RB3LYP) =  -423.199927573     A.U. after   14 cycles
 Optimization completed.
    -- Stationary point found.
 Normal termination of Gaussian 09 at Mon Jan 27 14:07:27 2020.

 ----------------------------------------------------------------------
 #N Geom=AllCheck Guess=TCheck SCRF=Check GenChk RB3LYP/6-31G(2df,p) Fr
 eq
 ----------------------------------------------------------------------

 Structure from the checkpoint file:  "/scratch/puck/g09_fc2ca2e7-8602-413a-a5be-7173e6f15674/Gau-57875.chk"
 -----
 titel
 -----
 Charge =  0 Multiplicity = 1

                         Standard orientation:
 ---------------------------------------------------------------------
 Center     Atomic      Atomic             Coordinates (Angstroms)
 Number     Number       Type             X           Y           Z
 ---------------------------------------------------------------------
      1          6           0       -2.849387   -0.952392   -0.478916
      2          6           0       -1.829724    0.074420   -0.022795
      3          8           0       -2.157680    1.106011    0.532285
      4          6           0       -0.401234   -0.255525   -0.261602
      5          6           0        0.585023    0.915239   -0.304521
      6          6           0        1.940913    0.653867   -0.939900
      7          6           0        2.423572   -0.623150   -0.212909
      8          8           0        1.716327   -0.685668    1.032419
      9          6           0        0.551992    0.067373    0.908283
     10          1           0       -2.642197   -1.925184   -0.018534
     11          1           0       -3.853922   -0.622799   -0.211576
     12          1           0       -2.784317   -1.094143   -1.564022
     13          1           0       -0.186824   -1.144424   -0.845257
     14          1           0        0.148087    1.906092   -0.306570
     15          1           0        1.908219    0.514255   -2.024132
     16          1           0        2.600780    1.501951   -0.730384
     17          1           0        2.201453   -1.519599   -0.807012
     18          1           0        3.493660   -0.623583    0.009526
     19          1           0        0.118957    0.365695    1.854483
 ---------------------------------------------------------------------

 SCF Done:  E(RB3LYP) =  -423.199927573     A.U. after    1 cycles

 The electronic state is 1-A.
 Alpha  occ. eigenvalues --  -19.15207 -19.11872 -10.26538 -10.24510 -10.23756
 Alpha  occ. eigenvalues --  -10.20035 -10.19857 -10.19571 -10.18652  -1.05458
 Alpha  occ. eigenvalues --   -1.02974  -0.85809  -0.76805  -0.74595  -0.66625
 Alpha  occ. eigenvalues --   -0.60351  -0.58279  -0.54910  -0.49938  -0.48020
 Alpha  occ. eigenvalues --   -0.46275  -0.44834  -0.44116  -0.42314  -0.40653
 Alpha  occ. eigenvalues --   -0.40587  -0.39255  -0.36642  -0.35366  -0.34120
 Alpha  occ. eigenvalues --   -0.33221  -0.28805  -0.25030  -0.23338
 Alpha virt. eigenvalues --   -0.00882   0.08535   0.09430   0.11173   0.12186
 Alpha virt. eigenvalues --    0.13258   0.13749   0.14957   0.15535   0.16432
 Alpha virt. eigenvalues --    0.17255   0.19221   0.19634   0.21358   0.21947

 Mulliken charges:
               1
     1  C   -0.486399
     2  C    0.374999
     3  O   -0.333088
     4  C   -0.205128
     5  C   -0.077612
     6  C   -0.262023
     7  C   -0.091044
     8  O   -0.255437
     9  C    0.132548
    10  H    0.140536
    11  H    0.140700
    12  H    0.137838
    13  H    0.088452
    14  H    0.117921
    15  H    0.111143
    16  H    0.117997
    17  H    0.105013
    18  H    0.116571
    19  H    0.127012
 Sum of Mulliken charges =   0.00000

 Dipole moment (field-independent basis, Debye):
    X=              1.2972    Y=             -1.3539    Z=             -2.1961  Tot=              2.8877
 Quadrupole moment (field-independent basis, Debye-Ang):
   XX=            -52.8472   YY=            -54.4094   ZZ=            -53.3585
   XY=              6.2577   XZ=             -0.5821   YZ=              0.6319

  Exact polarizability:  98.046   1.256  69.658  -1.540   3.305  64.262
 Approx polarizability: 124.040  -4.299 110.601  -0.615   6.717 102.277

                      1                      2                      3
                      A                      A                      A
 Frequencies --     64.8604               125.0318               141.0852
 Red. masses --      3.7471                 1.0976                 2.9300
 Frc consts  --      0.0093                 0.0101                 0.0344
 IR Inten    --      3.9190                 0.4283                 1.4304

                      4                      5                      6
                      A                      A                      A
 Frequencies --    157.6842               209.9637               297.8164
 Red. masses --      3.9061                 2.4259                 3.1636
 Frc consts  --      0.0572                 0.0630                 0.1653
 IR Inten    --      0.9761                 6.0996                 2.3136

                      7                      8                      9
                      A                      A                      A
 Frequencies --    337.7513               400.7004               585.4380
 Red. masses --      3.2067                 3.6026                 2.9616
 Frc consts  --      0.2155                 0.3408                 0.5981
 IR Inten    --      0.0595                 6.2438                 3.3091

                     10                     11                     12
                      A                      A                      A
 Frequencies --    590.0476               665.8982               711.3252
 Red. masses --      3.1445                 2.6843                 4.9007
 Frc consts  --      0.6450                 0.7013                 1.4610
 IR Inten    --      8.4640                 6.2784                 4.6097

                     13                     14                     15
                      A                      A                      A
 Frequencies --    820.7289               855.8752               876.2207
 Red. masses --      4.5543                 1.6683                 1.9088
 Frc consts  --      1.8075                 0.7200                 0.8635
 IR Inten    --     57.3462                 3.4193                18.9447

                     16                     17                     18
                      A                      A                      A
 Frequencies --    890.0447               925.9558               946.4539
 Red. masses --      2.8806                 3.9544                 2.2251
 Frc consts  --      1.3445                 1.9976                 1.1744
 IR Inten    --     12.7969                10.6192                53.4924

                     19                     20                     21
                      A                      A                      A
 Frequencies --    964.6494               985.0126              1009.4823
 Red. masses --      2.0001                 2.0649                 1.5675
 Frc consts  --      1.0966                 1.1804                 0.9412
 IR Inten    --      7.6276                77.2223                 4.8166

                     22                     23                     24
                      A                      A                      A
 Frequencies --   1039.4790              1054.0812              1079.2278
 Red. masses --      1.5877                 1.9435                 1.3087
 Frc consts  --      1.0108                 1.2723                 0.8981
 IR Inten    --      5.3760                 3.5776                21.3730

                     25                     26                     27
                      A                      A                      A
 Frequencies --   1128.4144              1147.2044              1190.2274
 Red. masses --      1.9911                 2.4118                 1.8206
 Frc consts  --      1.4938                 1.8702                 1.5196
 IR Inten    --     20.1178                94.4064                 8.6569

                     28                     29                     30
                      A                      A                      A
 Frequencies --   1200.1297              1217.5052              1239.2985
 Red. masses --      1.6718                 1.2383                 1.2956
 Frc consts  --      1.4187                 1.0814                 1.1724
 IR Inten    --     47.3373                 6.9802                 5.2646

                     31                     32                     33
                      A                      A                      A
 Frequencies --   1289.5909              1296.5773              1341.3876
 Red. masses --      1.6911                 1.3181                 1.5493
 Frc consts  --      1.6571                 1.3055                 1.6424
 IR Inten    --     24.6371                 5.0792                25.1357

                     34                     35                     36
                      A                      A                      A
 Frequencies --   1379.1292              1391.8733              1421.1986
 Red. masses --      1.3673                 1.5213                 2.3567
 Frc consts  --      1.5322                 1.7365                 2.8046
 IR Inten    --     15.9276                31.8103               130.4186

                     37                     38                     39
                      A                      A                      A
 Frequencies --   1464.0439              1475.4680              1496.1316
 Red. masses --      1.0597                 1.0488                 1.0951
 Frc consts  --      1.3382                 1.3452                 1.4442
 IR Inten    --      9.4191                 7.1394                 2.1668

                     40                     41                     42
                      A                      A                      A
 Frequencies --   1525.9448              1776.5583              3012.4699
 Red. masses --      1.0900                10.0403                 1.0703
 Frc consts  --      1.4954                18.6705                 5.7226
 IR Inten    --      1.0160               141.4133                44.6616

                     43                     44                     45
                      A                      A                      A
 Frequencies --   3033.4153              3051.8073              3088.3435
 Red. masses --      1.0371                 1.0608                 1.0950
 Frc consts  --      5.6225                 5.8211                 6.1534
 IR Inten    --      2.9942                26.7804                27.4353

                     46                     47                     48
                      A                      A                      A
 Frequencies --   3093.3435              3101.1675              3152.2737
 Red. masses --      1.0983                 1.1043                 1.1014
 Frc consts  --      6.1917                 6.2574                 6.4485
 IR Inten    --      8.0418                33.9879                11.5824

                     49                     50                     51
                      A                      A                      A
 Frequencies --   3167.6762              3195.8659              3206.7747
 Red. masses --      1.0894                 1.0893                 1.0937
 Frc consts  --      6.4405                 6.5551                 6.6263
 IR Inten    --      7.4752                 3.4792                 3.8052

 - Thermochemistry -
 -------------------
 Temperature   298.150 Kelvin.  Pressure   1.00000 Atm.
 Atom     1 has atomic number  6 and mass  12.00000

 Molecular mass:   126.06808 amu.
 Principal axes and moments of inertia in atomic units:
                           1         2         3
     Eigenvalues --   476.151301790.539321845.46821
           X            0.99959   0.02850  -0.00148
           Y           -0.02805   0.99055   0.13428
           Z            0.00530  -0.13419   0.99094
 This molecule is an asymmetric top.
 Rotational symmetry number  1.
 Warning -- assumption of classical behavior for rotation
           may cause significant error
 Rotational temperatures (Kelvin)      0.18190     0.04837     0.04693
 Rotational constants (GHZ):           3.79027     1.00793     0.97793
 Zero-point vibrational energy     417608.2 (Joules/Mol)
                                   99.81075 (Kcal/Mol)
 Warning -- explicit consideration of  10 degrees of freedom as
           vibrations may cause significant error
 Vibrational temperatures:     93.32   179.89   202.99   226.87   302.09
          (Kelvin)            428.49   485.95   576.52   842.31   848.95
                              958.08  1023.44  1180.84  1231.41  1260.68
                             1280.57  1332.24  1361.73  1387.91  1417.21
                             1452.42  1495.58  1516.59  1552.77  1623.53
                             1650.57  1712.47  1726.72  1751.72  1783.07
                             1855.43  1865.48  1929.96  1984.26  2002.59
                             2044.79  2106.43  2122.87  2152.60  2195.49
                             2556.07  4334.27  4364.40  4390.86  4443.43
                             4450.63  4461.88  4535.41  4557.57  4598.13
                             4613.83

 Zero-point correction=                           0.159059 (Hartree/Particle)
 Thermal correction to Energy=                    0.167628
 Thermal correction to Enthalpy=                  0.168572
 Thermal correction to Gibbs Free Energy=         0.125310
 Sum of electronic and zero-point Energies=           -423.040869
 Sum of electronic and thermal Energies=              -423.032299
 Sum of electronic and thermal Enthalpies=            -423.031355
 Sum of electronic and thermal Free Energies=         -423.074618

                     E (Thermal)             CV                S
                      KCal/Mol        Cal/Mol-Kelvin    Cal/Mol-Kelvin
 Total                  105.188             31.707             91.054
 Electronic               0.000              0.000              0.000
 Translational            0.889              2.981             40.409
 Rotational               0.889              2.981             28.844
 Vibrational            103.411             25.745             21.801
 Vibration     1          0.597              1.971              4.304
 Vibration     2          0.610              1.928              3.021
 Vibration     3          0.615              1.912              2.789
 Vibration     4          0.621              1.894              2.577
 Vibration     5          0.642              1.826              2.044
 Vibration     6          0.691              1.678              1.429
 Vibration     7          0.718              1.600              1.223
 Vibration     8          0.767              1.469              0.960
 Vibration     9          0.942              1.063              0.475
 Vibration    10          0.947              1.053              0.467

 Normal termination of Gaussian 09 at Mon Jan 27 14:50:36 2020.
