 Gaussian 09, Revision D.01,
 Gaussian 09:  ES64L-G09RevD.01 24-Apr-2013

 -----------------------------
 # b3lyp 6-31G(2df,p) opt Freq
 -----------------------------

 -----
 titel
 -----
 Symbolic Z-matrix:
 Charge =  0 Multiplicity = 1

 SCF Done:  E(RB3LYP) =  -423.134823435     A.U. after   14 cycles
 Optimization completed.
    -- Stationary point found.
 Normal termination of Gaussian 09 at Tue Jan 28 09:15:03 2020.

 ----------------------------------------------------------------------
 #N Geom=AllCheck Guess=TCheck SCRF=Check GenChk RB3LYP/6-31G(2df,p) Fr
 eq
 ----------------------------------------------------------------------

 Structure from the checkpoint file:  "/scratch/puck/g09_b9560aee-b4f1-415f-ab24-77bfeeb8fb5b/Gau-130454.chk"
 -----
 titel
 -----
 Charge =  0 Multiplicity = 1

                         Standard orientation:
 ---------------------------------------------------------------------
 Center     Atomic      Atomic             Coordinates (Angstroms)
 Number     Number       Type             X           Y           Z
 ---------------------------------------------------------------------
      1          6           0        0.690922    2.056248   -0.397244
      2          6           0       -0.327941    0.950270   -0.621534
      3          6           0       -1.324302    0.666550    0.555123
      4          8           0       -0.259795   -0.101786    1.211950
      5          6           0        0.037030   -0.521780   -0.172319
      6          6           0        1.376144   -1.200345   -0.314332
      7          8           0        2.421551   -0.456238    0.276567
      8          6           0       -1.259896   -1.265369   -0.543131
      9          6           0       -2.191190   -0.453045   -0.039324
     10          1           0        1.535409    1.959330   -1.085172
     11          1           0        0.224905    3.032584   -0.573212
     12          1           0        1.083128    2.040409    0.621091
     13          1           0       -0.785796    1.023163   -1.611651
     14          1           0       -1.766283    1.445261    1.175829
     15          1           0        1.305391   -2.210343    0.122738
     16          1           0        1.619441   -1.318761   -1.376299
     17          1           0        2.097737   -0.187566    1.144953
     18          1           0       -1.343331   -2.197043   -1.083831
     19          1           0       -3.269254   -0.518012   -0.046015
 ---------------------------------------------------------------------

 SCF Done:  E(RB3LYP) =  -423.134823435     A.U. after    1 cycles

 The electronic state is 1-A.
 Alpha  occ. eigenvalues --  -19.13364 -19.13305 -10.24455 -10.24289 -10.23038
 Alpha  occ. eigenvalues --  -10.19806 -10.18948 -10.18827 -10.17184  -1.05077
 Alpha  occ. eigenvalues --   -1.01367  -0.81027  -0.75398  -0.73630  -0.65612
 Alpha  occ. eigenvalues --   -0.63897  -0.54815  -0.53729  -0.52420  -0.48969
 Alpha  occ. eigenvalues --   -0.46585  -0.44977  -0.41999  -0.40904  -0.39246
 Alpha  occ. eigenvalues --   -0.38860  -0.38030  -0.37096  -0.32776  -0.32470
 Alpha  occ. eigenvalues --   -0.31052  -0.26462  -0.25667  -0.24161
 Alpha virt. eigenvalues --   -0.00302   0.08303   0.10456   0.11495   0.12009
 Alpha virt. eigenvalues --    0.12934   0.14095   0.14978   0.15791   0.16898
 Alpha virt. eigenvalues --    0.17273   0.18317   0.19114   0.19377   0.22062

 Mulliken charges:
               1
     1  C   -0.418527
     2  C   -0.002084
     3  C    0.001353
     4  O   -0.334142
     5  C    0.328021
     6  C   -0.186135
     7  O   -0.415280
     8  C   -0.128096
     9  C   -0.089871
    10  H    0.129784
    11  H    0.108430
    12  H    0.121846
    13  H    0.071403
    14  H    0.079222
    15  H    0.099092
    16  H    0.114153
    17  H    0.295393
    18  H    0.111641
    19  H    0.113798
 Sum of Mulliken charges =   0.00000

 Dipole moment (field-independent basis, Debye):
    X=             -1.8272    Y=              0.1955    Z=             -1.0248  Tot=              2.1041
 Quadrupole moment (field-independent basis, Debye-Ang):
   XX=            -55.5343   YY=            -50.5190   ZZ=            -53.2074
   XY=             -0.6243   XZ=              0.7628   YZ=              2.2342

  Exact polarizability:  83.014  -0.127  79.411  -2.396   5.484  62.075
 Approx polarizability: 119.610  -7.258 114.481  -5.525  10.970 103.027

                      1                      2                      3
                      A                      A                      A
 Frequencies --     95.7300               175.0320               221.4973
 Red. masses --      3.2324                 4.0427                 1.2658
 Frc consts  --      0.0175                 0.0730                 0.0366
 IR Inten    --      5.6341                 0.4444                 0.4593

                      4                      5                      6
                      A                      A                      A
 Frequencies --    244.3139               269.9251               331.6418
 Red. masses --      1.9032                 2.5688                 2.3864
 Frc consts  --      0.0669                 0.1103                 0.1546
 IR Inten    --     10.6383                 2.8546                 0.8352

                      7                      8                      9
                      A                      A                      A
 Frequencies --    388.4030               435.6652               493.4993
 Red. masses --      2.2069                 1.5602                 3.2389
 Frc consts  --      0.1962                 0.1745                 0.4648
 IR Inten    --     35.0932               110.9599                 2.4864

                     10                     11                     12
                      A                      A                      A
 Frequencies --    534.0400               631.1234               674.4598
 Red. masses --      2.8748                 2.8116                 3.2488
 Frc consts  --      0.4831                 0.6598                 0.8707
 IR Inten    --      0.7102                 2.6593                20.9203

                     13                     14                     15
                      A                      A                      A
 Frequencies --    699.1026               751.3380               788.9640
 Red. masses --      2.2759                 4.2274                 2.2763
 Frc consts  --      0.6554                 1.4060                 0.8348
 IR Inten    --     24.2696                 0.4738                13.1916

                     16                     17                     18
                      A                      A                      A
 Frequencies --    816.7735               861.0532               893.6671
 Red. masses --      3.1392                 3.1201                 2.2105
 Frc consts  --      1.2339                 1.3629                 1.0401
 IR Inten    --     11.2951                40.0451                 3.6602

                     19                     20                     21
                      A                      A                      A
 Frequencies --    902.6143               959.9213               998.4688
 Red. masses --      1.3946                 3.0726                 3.0212
 Frc consts  --      0.6694                 1.6681                 1.7746
 IR Inten    --      0.1006                26.9684                 6.3456

                     22                     23                     24
                      A                      A                      A
 Frequencies --   1040.4810              1049.2740              1073.9851
 Red. masses --      1.4851                 1.8488                 2.3292
 Frc consts  --      0.9473                 1.1992                 1.5829
 IR Inten    --     15.2290                20.8658                22.8187

                     25                     26                     27
                      A                      A                      A
 Frequencies --   1089.2159              1098.4017              1121.1376
 Red. masses --      1.4643                 2.9214                 2.3482
 Frc consts  --      1.0235                 2.0766                 1.7390
 IR Inten    --      7.4427                39.2800                 1.8266

                     28                     29                     30
                      A                      A                      A
 Frequencies --   1201.9116              1221.4045              1238.4524
 Red. masses --      1.4121                 1.4861                 1.3003
 Frc consts  --      1.2019                 1.3062                 1.1751
 IR Inten    --      3.5923                 0.5683                 6.4319

                     31                     32                     33
                      A                      A                      A
 Frequencies --   1259.9591              1298.0613              1320.8594
 Red. masses --      1.5403                 1.7622                 2.1721
 Frc consts  --      1.4407                 1.7495                 2.2328
 IR Inten    --      5.1106                 5.7558                22.5220

                     34                     35                     36
                      A                      A                      A
 Frequencies --   1372.5662              1383.1075              1406.9663
 Red. masses --      1.4699                 1.3187                 1.2776
 Frc consts  --      1.6316                 1.4863                 1.4901
 IR Inten    --     12.5002                 4.5506                 4.3302

                     37                     38                     39
                      A                      A                      A
 Frequencies --   1443.7141              1486.4499              1494.2932
 Red. masses --      1.4054                 1.0493                 1.0789
 Frc consts  --      1.7259                 1.3660                 1.4194
 IR Inten    --     46.7626                 6.9595                 0.2589

                     40                     41                     42
                      A                      A                      A
 Frequencies --   1498.8045              1616.0934              2969.0275
 Red. masses --      1.0566                 6.1639                 1.0706
 Frc consts  --      1.3984                 9.4850                 5.5605
 IR Inten    --      5.8419                 0.6301                55.2712

                     43                     44                     45
                      A                      A                      A
 Frequencies --   3037.9054              3065.9677              3072.4244
 Red. masses --      1.0410                 1.0909                 1.0851
 Frc consts  --      5.6604                 6.0420                 6.0350
 IR Inten    --     24.8769                17.1271                31.3459

                     46                     47                     48
                      A                      A                      A
 Frequencies --   3103.5956              3130.7839              3137.6114
 Red. masses --      1.0968                 1.0915                 1.0995
 Frc consts  --      6.2244                 6.3033                 6.3775
 IR Inten    --     19.2115                37.5672                20.2638

                     49                     50                     51
                      A                      A                      A
 Frequencies --   3227.3393              3254.8412              3789.0700
 Red. masses --      1.0865                 1.1114                 1.0656
 Frc consts  --      6.6674                 6.9372                 9.0138
 IR Inten    --      2.4368                 6.8724                24.4774

 - Thermochemistry -
 -------------------
 Temperature   298.150 Kelvin.  Pressure   1.00000 Atm.
 Atom     1 has atomic number  6 and mass  12.00000

 Molecular mass:   126.06808 amu.
 Principal axes and moments of inertia in atomic units:
                           1         2         3
     Eigenvalues --   697.105101076.508731414.19399
           X            0.99986   0.01668   0.00007
           Y           -0.01668   0.99979   0.01176
           Z            0.00012  -0.01176   0.99993
 This molecule is an asymmetric top.
 Rotational symmetry number  1.
 Warning -- assumption of classical behavior for rotation
           may cause significant error
 Rotational temperatures (Kelvin)      0.12425     0.08046     0.06125
 Rotational constants (GHZ):           2.58891     1.67648     1.27616
 Zero-point vibrational energy     416724.8 (Joules/Mol)
                                   99.59961 (Kcal/Mol)
 Warning -- explicit consideration of  10 degrees of freedom as
           vibrations may cause significant error
 Vibrational temperatures:    137.73   251.83   318.68   351.51   388.36
          (Kelvin)            477.16   558.82   626.82   710.03   768.36
                              908.04   970.40  1005.85  1081.01  1135.14
                             1175.15  1238.86  1285.79  1298.66  1381.11
                             1436.57  1497.02  1509.67  1545.22  1567.14
                             1580.35  1613.06  1729.28  1757.33  1781.85
                             1812.80  1867.62  1900.42  1974.81  1989.98
                             2024.31  2077.18  2138.67  2149.95  2156.44
                             2325.20  4271.76  4370.86  4411.24  4420.53
                             4465.38  4504.49  4514.32  4643.42  4682.98
                             5451.62

 Zero-point correction=                           0.158722 (Hartree/Particle)
 Thermal correction to Energy=                    0.166961
 Thermal correction to Enthalpy=                  0.167905
 Thermal correction to Gibbs Free Energy=         0.126319
 Sum of electronic and zero-point Energies=           -422.976101
 Sum of electronic and thermal Energies=              -422.967862
 Sum of electronic and thermal Enthalpies=            -422.966918
 Sum of electronic and thermal Free Energies=         -423.008505

                     E (Thermal)             CV                S
                      KCal/Mol        Cal/Mol-Kelvin    Cal/Mol-Kelvin
 Total                  104.770             32.634             87.526
 Electronic               0.000              0.000              0.000
 Translational            0.889              2.981             40.409
 Rotational               0.889              2.981             28.453
 Vibrational            102.992             26.672             18.665
 Vibration     1          0.603              1.952              3.539
 Vibration     2          0.627              1.873              2.381
 Vibration     3          0.648              1.808              1.947
 Vibration     4          0.660              1.772              1.771
 Vibration     5          0.674              1.729              1.597
 Vibration     6          0.714              1.612              1.252
 Vibration     7          0.757              1.495              1.006
 Vibration     8          0.796              1.392              0.840
 Vibration     9          0.849              1.264              0.675
 Vibration    10          0.889              1.175              0.578

 Normal termination of Gaussian 09 at Tue Jan 28 09:58:01 2020.
