 Gaussian 09, Revision D.01,
 Gaussian 09:  ES64L-G09RevD.01 24-Apr-2013

 -----------------------------
 # b3lyp 6-31G(2df,p) opt Freq
 -----------------------------

 -----
 titel
 -----
 Symbolic Z-matrix:
 Charge =  0 Multiplicity = 1

 SCF Done:  E(RB3LYP) =  -423.180348292     A.U. after   13 cycles
 Optimization completed.
    -- Stationary point found.
 Normal termination of Gaussian 09 at Mon Jan 27 11:54:17 2020.

 ----------------------------------------------------------------------
 #N Geom=AllCheck Guess=TCheck SCRF=Check GenChk RB3LYP/6-31G(2df,p) Fr
 eq
 ----------------------------------------------------------------------

 Structure from the checkpoint file:  "/scratch/puck/g09_e723370e-67d0-4c3d-8d6d-5dc813c8b852/Gau-41191.chk"
 -----
 titel
 -----
 Charge =  0 Multiplicity = 1

                         Standard orientation:
 ---------------------------------------------------------------------
 Center     Atomic      Atomic             Coordinates (Angstroms)
 Number     Number       Type             X           Y           Z
 ---------------------------------------------------------------------
      1          6           0        2.043761    0.640686   -0.688753
      2          6           0        2.303829   -0.255803    0.502177
      3          6           0        0.907985   -0.079806   -0.021593
      4          6           0        0.106194   -1.230301   -0.662739
      5          6           0       -1.286677   -0.916885   -0.077275
      6          8           0       -1.829994    0.211182   -0.761668
      7          6           0       -1.142511    1.338652   -0.190615
      8          6           0       -0.170364    0.646235    0.784967
      9          8           0       -0.999179   -0.445355    1.226596
     10          1           0        2.130997    1.713669   -0.545288
     11          1           0        2.362365    0.300646   -1.668641
     12          1           0        2.793434   -1.208457    0.326655
     13          1           0        2.566503    0.211225    1.446332
     14          1           0        0.091654   -1.203162   -1.754640
     15          1           0        0.459932   -2.212174   -0.333785
     16          1           0       -2.020812   -1.721410   -0.053826
     17          1           0       -0.633055    1.910453   -0.972704
     18          1           0       -1.860602    1.984270    0.328013
     19          1           0        0.169671    1.241657    1.631442
 ---------------------------------------------------------------------

 SCF Done:  E(RB3LYP) =  -423.180348292     A.U. after    1 cycles

 The electronic state is 1-A.
 Alpha  occ. eigenvalues --  -19.14519 -19.13677 -10.27392 -10.23847 -10.22661
 Alpha  occ. eigenvalues --  -10.20171 -10.19052 -10.18851 -10.18387  -1.09167
 Alpha  occ. eigenvalues --   -0.98614  -0.86621  -0.76366  -0.73550  -0.62774
 Alpha  occ. eigenvalues --   -0.60855  -0.59646  -0.55638  -0.52579  -0.50270
 Alpha  occ. eigenvalues --   -0.46352  -0.45730  -0.43609  -0.42727  -0.40260
 Alpha  occ. eigenvalues --   -0.39549  -0.36811  -0.35660  -0.34084  -0.33085
 Alpha  occ. eigenvalues --   -0.29855  -0.28351  -0.26950  -0.24907
 Alpha virt. eigenvalues --    0.08790   0.09726   0.09826   0.10583   0.12616
 Alpha virt. eigenvalues --    0.13715   0.14602   0.15279   0.16536   0.17760
 Alpha virt. eigenvalues --    0.17955   0.18733   0.19568   0.21871   0.22388

 Mulliken charges:
               1
     1  C   -0.328241
     2  C   -0.338865
     3  C    0.415679
     4  C   -0.332851
     5  C    0.188045
     6  O   -0.277475
     7  C   -0.084404
     8  C   -0.056186
     9  O   -0.248167
    10  H    0.111031
    11  H    0.116294
    12  H    0.114231
    13  H    0.113240
    14  H    0.112086
    15  H    0.106790
    16  H    0.092457
    17  H    0.106248
    18  H    0.103651
    19  H    0.086437
 Sum of Mulliken charges =   0.00000

 Dipole moment (field-independent basis, Debye):
    X=              1.6912    Y=              0.4052    Z=             -0.2554  Tot=              1.7577
 Quadrupole moment (field-independent basis, Debye-Ang):
   XX=            -56.5038   YY=            -48.6161   ZZ=            -55.1836
   XY=              0.5015   XZ=             -0.3809   YZ=              2.4868

  Exact polarizability:  79.596   0.720  75.389   0.563   1.236  65.424
 Approx polarizability: 106.476   3.049 109.843   1.564  -0.640 103.160

                      1                      2                      3
                      A                      A                      A
 Frequencies --    113.2617               225.0712               276.6701
 Red. masses --      3.7470                 2.2077                 2.4812
 Frc consts  --      0.0283                 0.0659                 0.1119
 IR Inten    --      0.8368                 1.4982                 1.2361

                      4                      5                      6
                      A                      A                      A
 Frequencies --    302.6208               391.8905               445.2087
 Red. masses --      2.6485                 2.6745                 2.4980
 Frc consts  --      0.1429                 0.2420                 0.2917
 IR Inten    --      1.4094                 1.3077                 0.9185

                      7                      8                      9
                      A                      A                      A
 Frequencies --    529.3402               622.0826               696.3475
 Red. masses --      4.0775                 6.3647                 3.7612
 Frc consts  --      0.6732                 1.4512                 1.0746
 IR Inten    --      2.0491                13.5682                 0.7474

                     10                     11                     12
                      A                      A                      A
 Frequencies --    775.4472               813.0599               821.9024
 Red. masses --      1.0896                 4.0875                 3.8517
 Frc consts  --      0.3860                 1.5920                 1.5330
 IR Inten    --      0.3978                 1.8496                 4.7278

                     13                     14                     15
                      A                      A                      A
 Frequencies --    859.9161               888.8618               892.0074
 Red. masses --      2.8814                 2.6341                 2.1464
 Frc consts  --      1.2553                 1.2262                 1.0062
 IR Inten    --     24.7560                31.8646                 4.6102

                     16                     17                     18
                      A                      A                      A
 Frequencies --    925.4010               960.3430               965.1246
 Red. masses --      1.7299                 2.7645                 2.0652
 Frc consts  --      0.8728                 1.5022                 1.1334
 IR Inten    --      0.5248                50.6432                21.1797

                     19                     20                     21
                      A                      A                      A
 Frequencies --    979.8256               999.0090              1015.7306
 Red. masses --      2.3119                 3.5303                 3.7574
 Frc consts  --      1.3077                 2.0759                 2.2840
 IR Inten    --      3.0470                33.4259                21.6422

                     22                     23                     24
                      A                      A                      A
 Frequencies --   1041.6219              1056.1043              1060.5864
 Red. masses --      1.8451                 1.7603                 1.5206
 Frc consts  --      1.1795                 1.1568                 1.0078
 IR Inten    --      3.0448                 8.3791                 8.3528

                     25                     26                     27
                      A                      A                      A
 Frequencies --   1082.0935              1100.8119              1179.9134
 Red. masses --      1.4269                 4.4289                 1.2287
 Frc consts  --      0.9844                 3.1621                 1.0078
 IR Inten    --      2.8461                95.8634                 3.6916

                     28                     29                     30
                      A                      A                      A
 Frequencies --   1186.3264              1192.5671              1239.7403
 Red. masses --      1.2825                 1.1584                 1.5747
 Frc consts  --      1.0634                 0.9707                 1.4259
 IR Inten    --      0.4081                 3.4811                 5.6638

                     31                     32                     33
                      A                      A                      A
 Frequencies --   1265.2268              1268.7927              1287.2610
 Red. masses --      1.6768                 1.6297                 1.6363
 Frc consts  --      1.5815                 1.5457                 1.5975
 IR Inten    --      7.5447                 7.5860                 0.5502

                     34                     35                     36
                      A                      A                      A
 Frequencies --   1322.9409              1331.5712              1377.7299
 Red. masses --      1.3288                 1.6136                 1.4419
 Frc consts  --      1.3702                 1.6856                 1.6125
 IR Inten    --      4.1304                13.1586                 5.7053

                     37                     38                     39
                      A                      A                      A
 Frequencies --   1393.1116              1468.0441              1482.5896
 Red. masses --      2.2185                 1.0867                 1.1038
 Frc consts  --      2.5368                 1.3799                 1.4295
 IR Inten    --      2.7590                 1.7506                 3.7675

                     40                     41                     42
                      A                      A                      A
 Frequencies --   1506.0726              1519.9482              3030.7902
 Red. masses --      1.4544                 1.1035                 1.0584
 Frc consts  --      1.9437                 1.5021                 5.7281
 IR Inten    --      0.1215                 1.3477                58.9881

                     43                     44                     45
                      A                      A                      A
 Frequencies --   3054.7132              3081.3095              3111.1567
 Red. masses --      1.0609                 1.1079                 1.1047
 Frc consts  --      5.8325                 6.1973                 6.2999
 IR Inten    --     21.5344                30.9887                15.1223

                     46                     47                     48
                      A                      A                      A
 Frequencies --   3120.4572              3124.1302              3131.3888
 Red. masses --      1.0505                 1.0595                 1.0881
 Frc consts  --      6.0269                 6.0926                 6.2860
 IR Inten    --     19.6794                 8.7832                38.8286

                     49                     50                     51
                      A                      A                      A
 Frequencies --   3137.8265              3198.0172              3212.8222
 Red. masses --      1.0938                 1.1176                 1.1154
 Frc consts  --      6.3450                 6.7344                 6.7834
 IR Inten    --     21.4040                 0.0703                17.5094

 - Thermochemistry -
 -------------------
 Temperature   298.150 Kelvin.  Pressure   1.00000 Atm.
 Atom     1 has atomic number  6 and mass  12.00000

 Molecular mass:   126.06808 amu.
 Principal axes and moments of inertia in atomic units:
                           1         2         3
     Eigenvalues --   553.794571175.605581248.98439
           X            0.99999  -0.00403  -0.00284
           Y            0.00431   0.99416   0.10785
           Z            0.00239  -0.10786   0.99416
 This molecule is an asymmetric top.
 Rotational symmetry number  1.
 Warning -- assumption of classical behavior for rotation
           may cause significant error
 Rotational temperatures (Kelvin)      0.15640     0.07368     0.06935
 Rotational constants (GHZ):           3.25886     1.53516     1.44497
 Zero-point vibrational energy     425061.8 (Joules/Mol)
                                  101.59221 (Kcal/Mol)
 Warning -- explicit consideration of   7 degrees of freedom as
           vibrations may cause significant error
 Vibrational temperatures:    162.96   323.83   398.07   435.40   563.84
          (Kelvin)            640.56   761.60   895.04  1001.89  1115.69
                             1169.81  1182.53  1237.23  1278.87  1283.40
                             1331.44  1381.72  1388.60  1409.75  1437.35
                             1461.41  1498.66  1519.50  1525.95  1556.89
                             1583.82  1697.63  1706.86  1715.84  1783.71
                             1820.38  1825.51  1852.08  1903.41  1915.83
                             1982.24  2004.37  2112.19  2133.11  2166.90
                             2186.86  4360.63  4395.05  4433.31  4476.25
                             4489.64  4494.92  4505.36  4514.63  4601.23
                             4622.53

 Zero-point correction=                           0.161897 (Hartree/Particle)
 Thermal correction to Energy=                    0.168836
 Thermal correction to Enthalpy=                  0.169780
 Thermal correction to Gibbs Free Energy=         0.130703
 Sum of electronic and zero-point Energies=           -423.018451
 Sum of electronic and thermal Energies=              -423.011513
 Sum of electronic and thermal Enthalpies=            -423.010568
 Sum of electronic and thermal Free Energies=         -423.049645

                     E (Thermal)             CV                S
                      KCal/Mol        Cal/Mol-Kelvin    Cal/Mol-Kelvin
 Total                  105.946             28.570             82.244
 Electronic               0.000              0.000              0.000
 Translational            0.889              2.981             40.409
 Rotational               0.889              2.981             28.188
 Vibrational            104.169             22.609             13.648
 Vibration     1          0.607              1.938              3.212
 Vibration     2          0.650              1.803              1.918
 Vibration     3          0.678              1.717              1.554
 Vibration     4          0.694              1.669              1.402
 Vibration     5          0.759              1.488              0.993
 Vibration     6          0.805              1.371              0.810
 Vibration     7          0.884              1.185              0.589

 Normal termination of Gaussian 09 at Mon Jan 27 12:37:19 2020.
