 Gaussian 09, Revision D.01,
 Gaussian 09:  ES64L-G09RevD.01 24-Apr-2013

 -----------------------------
 # b3lyp 6-31G(2df,p) opt Freq
 -----------------------------

 -----
 titel
 -----
 Symbolic Z-matrix:
 Charge =  0 Multiplicity = 1

 SCF Done:  E(RB3LYP) =  -423.120178084     A.U. after   13 cycles
 Optimization completed.
    -- Stationary point found.
 Normal termination of Gaussian 09 at Mon Jan 27 12:15:01 2020.

 ----------------------------------------------------------------------
 #N Geom=AllCheck Guess=TCheck SCRF=Check GenChk RB3LYP/6-31G(2df,p) Fr
 eq
 ----------------------------------------------------------------------

 Structure from the checkpoint file:  "/scratch/puck/g09_f2aedbc8-4ba9-4fc3-b284-73a16998e467/Gau-153284.chk"
 -----
 titel
 -----
 Charge =  0 Multiplicity = 1

                         Standard orientation:
 ---------------------------------------------------------------------
 Center     Atomic      Atomic             Coordinates (Angstroms)
 Number     Number       Type             X           Y           Z
 ---------------------------------------------------------------------
      1          6           0        1.643640   -1.210909    0.239315
      2          8           0        2.348861   -0.149396   -0.445376
      3          6           0        1.537522    0.860622    0.188604
      4          6           0        0.334834    1.290604   -0.678835
      5          6           0       -0.542384    0.201172    0.004819
      6          6           0       -1.881152    0.582002    0.671103
      7          8           0       -2.591695   -0.444846   -0.045434
      8          6           0       -1.401010   -0.820970   -0.766133
      9          6           0        0.663348   -0.218846    0.888682
     10          1           0        1.225382   -1.951600   -0.453914
     11          1           0        2.298302   -1.726603    0.953274
     12          1           0        2.136212    1.626323    0.688109
     13          1           0       -0.018857    2.307875   -0.481905
     14          1           0        0.503804    1.172845   -1.752281
     15          1           0       -1.935020    0.439998    1.758852
     16          1           0       -2.250267    1.587106    0.423702
     17          1           0       -1.146810   -1.877945   -0.613901
     18          1           0       -1.493861   -0.630014   -1.843690
     19          1           0        0.495004   -0.296098    1.962905
 ---------------------------------------------------------------------

 SCF Done:  E(RB3LYP) =  -423.120178084     A.U. after    1 cycles

 The electronic state is 1-A.
 Alpha  occ. eigenvalues --  -19.13483 -19.13224 -10.23745 -10.23545 -10.23148
 Alpha  occ. eigenvalues --  -10.23043 -10.20482 -10.19698 -10.18699  -1.04339
 Alpha  occ. eigenvalues --   -1.03733  -0.83323  -0.72246  -0.69825  -0.69351
 Alpha  occ. eigenvalues --   -0.63745  -0.56994  -0.52351  -0.51538  -0.49805
 Alpha  occ. eigenvalues --   -0.48572  -0.45749  -0.43663  -0.42853  -0.41382
 Alpha  occ. eigenvalues --   -0.39469  -0.38452  -0.34867  -0.32719  -0.31969
 Alpha  occ. eigenvalues --   -0.30144  -0.27792  -0.24966  -0.24554
 Alpha virt. eigenvalues --    0.06228   0.06799   0.07839   0.10734   0.11414
 Alpha virt. eigenvalues --    0.11693   0.12852   0.14048   0.15276   0.16688
 Alpha virt. eigenvalues --    0.17573   0.18343   0.19136   0.20597   0.21047

 Mulliken charges:
               1
     1  C   -0.085500
     2  O   -0.291907
     3  C    0.125421
     4  C   -0.325761
     5  C    0.301423
     6  C   -0.135559
     7  O   -0.273495
     8  C   -0.133227
     9  C   -0.165531
    10  H    0.103720
    11  H    0.104362
    12  H    0.078289
    13  H    0.103264
    14  H    0.114560
    15  H    0.099987
    16  H    0.098260
    17  H    0.100655
    18  H    0.102608
    19  H    0.078432
 Sum of Mulliken charges =   0.00000

 Dipole moment (field-independent basis, Debye):
    X=              0.4040    Y=              0.5716    Z=              1.0248  Tot=              1.2410
 Quadrupole moment (field-independent basis, Debye-Ang):
   XX=            -65.4504   YY=            -49.7931   ZZ=            -51.3815
   XY=             -2.2250   XZ=              2.4319   YZ=              0.4490

  Exact polarizability:  77.643  -2.848  76.325   0.875   0.847  68.351
 Approx polarizability: 105.054  -2.001 110.730  -1.505   1.594 102.872

                      1                      2                      3
                      A                      A                      A
 Frequencies --     57.8610                76.8533               200.8815
 Red. masses --      3.6145                 3.9509                 2.2950
 Frc consts  --      0.0071                 0.0137                 0.0546
 IR Inten    --      6.5455                 3.4199                 0.0568

                      4                      5                      6
                      A                      A                      A
 Frequencies --    260.7859               335.9981               367.7493
 Red. masses --      2.6150                 2.6470                 2.4296
 Frc consts  --      0.1048                 0.1761                 0.1936
 IR Inten    --      1.8502                 0.3788                 1.2405

                      7                      8                      9
                      A                      A                      A
 Frequencies --    443.5936               504.4862               714.4011
 Red. masses --      2.1501                 3.9397                 3.1940
 Frc consts  --      0.2493                 0.5908                 0.9604
 IR Inten    --      1.4527                 0.9915                 0.8015

                     10                     11                     12
                      A                      A                      A
 Frequencies --    787.2291               822.5545               841.4386
 Red. masses --      2.1067                 2.2660                 1.9548
 Frc consts  --      0.7692                 0.9033                 0.8155
 IR Inten    --      3.1706                 7.3335                 4.0039

                     13                     14                     15
                      A                      A                      A
 Frequencies --    861.3860               907.5041               929.0996
 Red. masses --      3.0011                 2.4475                 2.9295
 Frc consts  --      1.3120                 1.1876                 1.4899
 IR Inten    --      7.5545                 1.8754                16.3047

                     16                     17                     18
                      A                      A                      A
 Frequencies --    953.7568               983.1331               984.9471
 Red. masses --      1.7436                 1.8245                 3.4356
 Frc consts  --      0.9345                 1.0390                 1.9637
 IR Inten    --      6.6934                 5.4340                16.0626

                     19                     20                     21
                      A                      A                      A
 Frequencies --   1008.0351              1018.1867              1042.8800
 Red. masses --      2.0434                 5.1641                10.4906
 Frc consts  --      1.2234                 3.1542                 6.7223
 IR Inten    --     13.2498                60.6721                82.2750

                     22                     23                     24
                      A                      A                      A
 Frequencies --   1062.2935              1096.8051              1151.0648
 Red. masses --      2.3496                 1.8074                 1.5602
 Frc consts  --      1.5622                 1.2810                 1.2180
 IR Inten    --      8.8097                10.2712                 0.8971

                     25                     26                     27
                      A                      A                      A
 Frequencies --   1154.3026              1162.3487              1180.0985
 Red. masses --      1.2968                 1.0992                 1.6848
 Frc consts  --      1.0180                 0.8750                 1.3824
 IR Inten    --      1.7861                 0.2263                 8.0154

                     28                     29                     30
                      A                      A                      A
 Frequencies --   1187.3165              1207.3169              1227.3840
 Red. masses --      1.7404                 1.8761                 2.0487
 Frc consts  --      1.4456                 1.6112                 1.8184
 IR Inten    --      1.9869                 2.2984                 1.6496

                     31                     32                     33
                      A                      A                      A
 Frequencies --   1243.3368              1267.2072              1305.6358
 Red. masses --      1.7961                 1.6384                 1.4805
 Frc consts  --      1.6359                 1.5501                 1.4869
 IR Inten    --      0.5196                 4.3131                 7.7292

                     34                     35                     36
                      A                      A                      A
 Frequencies --   1310.4990              1322.8918              1361.9923
 Red. masses --      1.2996                 1.7231                 1.4314
 Frc consts  --      1.3150                 1.7767                 1.5644
 IR Inten    --      0.9061                 2.8498                 6.2061

                     37                     38                     39
                      A                      A                      A
 Frequencies --   1382.3576              1459.1246              1505.0025
 Red. masses --      1.5818                 1.1043                 1.0789
 Frc consts  --      1.7809                 1.3852                 1.4398
 IR Inten    --      4.0814                 3.9987                 1.0178

                     40                     41                     42
                      A                      A                      A
 Frequencies --   1522.7796              1531.2410              2991.1587
 Red. masses --      1.0974                 1.1102                 1.0527
 Frc consts  --      1.4993                 1.5338                 5.5490
 IR Inten    --      0.9857                 0.2073               106.1368

                     43                     44                     45
                      A                      A                      A
 Frequencies --   3005.3485              3010.4164              3037.4417
 Red. masses --      1.0569                 1.0556                 1.1095
 Frc consts  --      5.6244                 5.6365                 6.0308
 IR Inten    --     10.6854                74.3763                32.5932

                     46                     47                     48
                      A                      A                      A
 Frequencies --   3043.9880              3046.8735              3051.7667
 Red. masses --      1.1092                 1.0622                 1.1099
 Frc consts  --      6.0554                 5.8097                 6.0902
 IR Inten    --     48.3353                40.7478                28.8627

                     49                     50                     51
                      A                      A                      A
 Frequencies --   3076.6836              3109.2721              3109.9541
 Red. masses --      1.0884                 1.0909                 1.1054
 Frc consts  --      6.0704                 6.2137                 6.2992
 IR Inten    --     56.8599                25.9912                22.8567

 - Thermochemistry -
 -------------------
 Temperature   298.150 Kelvin.  Pressure   1.00000 Atm.
 Atom     1 has atomic number  6 and mass  12.00000

 Molecular mass:   126.06808 amu.
 Principal axes and moments of inertia in atomic units:
                           1         2         3
     Eigenvalues --   478.028971445.466631583.03941
           X            0.99988  -0.01403   0.00726
           Y            0.01396   0.99986   0.00893
           Z           -0.00739  -0.00883   0.99993
 This molecule is an asymmetric top.
 Rotational symmetry number  1.
 Warning -- assumption of classical behavior for rotation
           may cause significant error
 Rotational temperatures (Kelvin)      0.18119     0.05992     0.05471
 Rotational constants (GHZ):           3.77538     1.24855     1.14005
 Zero-point vibrational energy     420048.7 (Joules/Mol)
                                  100.39405 (Kcal/Mol)
 Warning -- explicit consideration of   8 degrees of freedom as
           vibrations may cause significant error
 Vibrational temperatures:     83.25   110.57   289.02   375.21   483.43
          (Kelvin)            529.11   638.23   725.84  1027.86  1132.65
                             1183.47  1210.64  1239.34  1305.69  1336.77
                             1372.24  1414.51  1417.12  1450.34  1464.94
                             1500.47  1528.40  1578.06  1656.12  1660.78
                             1672.36  1697.90  1708.28  1737.06  1765.93
                             1788.88  1823.23  1878.52  1885.51  1903.34
                             1959.60  1988.90  2099.35  2165.36  2190.94
                             2203.11  4303.60  4324.02  4331.31  4370.20
                             4379.61  4383.77  4390.81  4426.66  4473.54
                             4474.52

 Zero-point correction=                           0.159988 (Hartree/Particle)
 Thermal correction to Energy=                    0.167651
 Thermal correction to Enthalpy=                  0.168595
 Thermal correction to Gibbs Free Energy=         0.127021
 Sum of electronic and zero-point Energies=           -422.960190
 Sum of electronic and thermal Energies=              -422.952527
 Sum of electronic and thermal Enthalpies=            -422.951583
 Sum of electronic and thermal Free Energies=         -422.993157

                     E (Thermal)             CV                S
                      KCal/Mol        Cal/Mol-Kelvin    Cal/Mol-Kelvin
 Total                  105.202             29.122             87.499
 Electronic               0.000              0.000              0.000
 Translational            0.889              2.981             40.409
 Rotational               0.889              2.981             28.483
 Vibrational            103.425             23.160             18.608
 Vibration     1          0.596              1.974              4.529
 Vibration     2          0.599              1.965              3.970
 Vibration     3          0.638              1.839              2.125
 Vibration     4          0.669              1.744              1.657
 Vibration     5          0.717              1.604              1.231
 Vibration     6          0.740              1.539              1.089
 Vibration     7          0.803              1.375              0.815
 Vibration     8          0.860              1.240              0.647

 Optimization completed.
    -- Stationary point found.
 Normal termination of Gaussian 09 at Mon Jan 27 13:00:10 2020.
