 Gaussian 09, Revision D.01,
 Gaussian 09:  ES64L-G09RevD.01 24-Apr-2013

 -----------------------------
 # b3lyp 6-31G(2df,p) opt Freq
 -----------------------------

 -----
 titel
 -----
 Symbolic Z-matrix:
 Charge =  0 Multiplicity = 1

 SCF Done:  E(RB3LYP) =  -423.097949805     A.U. after   13 cycles
 Optimization completed.
    -- Stationary point found.
 Normal termination of Gaussian 09 at Tue Jan 28 13:24:36 2020.

 ----------------------------------------------------------------------
 #N Geom=AllCheck Guess=TCheck SCRF=Check GenChk RB3LYP/6-31G(2df,p) Fr
 eq
 ----------------------------------------------------------------------

 Structure from the checkpoint file:  "/scratch/puck/g09_6ea27903-6e6f-4618-b5d5-ab76d25d7d83/Gau-144742.chk"
 -----
 titel
 -----
 Charge =  0 Multiplicity = 1

                         Standard orientation:
 ---------------------------------------------------------------------
 Center     Atomic      Atomic             Coordinates (Angstroms)
 Number     Number       Type             X           Y           Z
 ---------------------------------------------------------------------
      1          6           0        3.264985   -0.228213    0.021270
      2          8           0        1.923777   -0.660020    0.139270
      3          6           0        1.053894    0.361093    0.482174
      4          6           0        0.529558    1.300811   -0.604612
      5          6           0       -0.354619    0.254781    0.005890
      6          8           0       -0.808865   -0.883486   -0.739632
      7          6           0       -2.002399   -0.915785    0.055385
      8          6           0       -2.808722    0.329213   -0.135172
      9          6           0       -1.623473    0.333981    0.816048
     10          1           0        3.644247    0.179079    0.970960
     11          1           0        3.859336   -1.102918   -0.252373
     12          1           0        3.376485    0.542300   -0.754875
     13          1           0        1.215922    0.790632    1.474829
     14          1           0        0.364327    2.349243   -0.378605
     15          1           0        0.869622    1.085674   -1.612617
     16          1           0       -2.373543   -1.883863    0.367515
     17          1           0       -2.760204    0.860696   -1.081145
     18          1           0       -3.777446    0.337873    0.355376
     19          1           0       -1.693381    0.574051    1.867927
 ---------------------------------------------------------------------

 SCF Done:  E(RB3LYP) =  -423.097949805     A.U. after    1 cycles

 The electronic state is 1-A.
 Alpha  occ. eigenvalues --  -19.14406 -19.13874 -10.24283 -10.23930 -10.23317
 Alpha  occ. eigenvalues --  -10.22294 -10.19778 -10.19010 -10.18084  -1.05826
 Alpha  occ. eigenvalues --   -1.03652  -0.84291  -0.83183  -0.69120  -0.64441
 Alpha  occ. eigenvalues --   -0.60259  -0.58561  -0.53297  -0.52236  -0.51188
 Alpha  occ. eigenvalues --   -0.46446  -0.45990  -0.44151  -0.43181  -0.40653
 Alpha  occ. eigenvalues --   -0.40114  -0.36889  -0.35087  -0.33993  -0.31757
 Alpha  occ. eigenvalues --   -0.29900  -0.26316  -0.24515  -0.22565
 Alpha virt. eigenvalues --    0.06906   0.09940   0.10866   0.11688   0.12408
 Alpha virt. eigenvalues --    0.13311   0.14488   0.15231   0.15813   0.16296
 Alpha virt. eigenvalues --    0.17198   0.18025   0.19036   0.20552   0.21976

 Mulliken charges:
               1
     1  C   -0.228599
     2  O   -0.230230
     3  C    0.029920
     4  C   -0.406776
     5  C    0.435822
     6  O   -0.303992
     7  C    0.103764
     8  C   -0.299382
     9  C   -0.219113
    10  H    0.104276
    11  H    0.129516
    12  H    0.109531
    13  H    0.083147
    14  H    0.114677
    15  H    0.132094
    16  H    0.108621
    17  H    0.119398
    18  H    0.114318
    19  H    0.103007
 Sum of Mulliken charges =   0.00000

 Dipole moment (field-independent basis, Debye):
    X=             -0.1324    Y=              1.6029    Z=              1.2916  Tot=              2.0627
 Quadrupole moment (field-independent basis, Debye-Ang):
   XX=            -45.4051   YY=            -53.8736   ZZ=            -52.5493
   XY=              1.8694   XZ=             -2.0379   YZ=             -0.9922

  Exact polarizability:  98.733   0.883  68.697  -0.482  -1.049  65.062
 Approx polarizability: 118.613   1.390 106.840   0.204   1.386 100.396

                      1                      2                      3
                      A                      A                      A
 Frequencies --     83.5717               109.0512               149.2882
 Red. masses --      2.9657                 3.8981                 2.1039
 Frc consts  --      0.0122                 0.0273                 0.0276
 IR Inten    --      3.6929                 1.0523                 0.2123

                      4                      5                      6
                      A                      A                      A
 Frequencies --    196.9258               232.7119               317.9955
 Red. masses --      1.6538                 2.1054                 4.3863
 Frc consts  --      0.0378                 0.0672                 0.2613
 IR Inten    --      0.2815                 2.3110                 0.4749

                      7                      8                      9
                      A                      A                      A
 Frequencies --    334.7658               435.8883               482.1253
 Red. masses --      2.9028                 2.5159                 2.3762
 Frc consts  --      0.1917                 0.2816                 0.3254
 IR Inten    --      1.2224                 0.3522                 7.1301

                     10                     11                     12
                      A                      A                      A
 Frequencies --    568.7283               651.3525               754.7410
 Red. masses --      3.5100                 3.3479                 1.5314
 Frc consts  --      0.6689                 0.8369                 0.5140
 IR Inten    --      3.7910                 2.1048                 6.2789

                     13                     14                     15
                      A                      A                      A
 Frequencies --    801.8673               815.1286               871.2918
 Red. masses --      2.1687                 1.7600                 2.9645
 Frc consts  --      0.8216                 0.6890                 1.3260
 IR Inten    --      7.5628                 8.1468                34.4963

                     16                     17                     18
                      A                      A                      A
 Frequencies --    873.0323               944.7778               951.0923
 Red. masses --      1.9492                 2.1284                 2.3619
 Frc consts  --      0.8753                 1.1193                 1.2588
 IR Inten    --      7.0109                 6.5185                 3.9219

                     19                     20                     21
                      A                      A                      A
 Frequencies --    974.5167              1004.4179              1022.9618
 Red. masses --      2.1682                 2.0503                 2.4599
 Frc consts  --      1.2132                 1.2187                 1.5167
 IR Inten    --     34.5275                 3.1041                12.2215

                     22                     23                     24
                      A                      A                      A
 Frequencies --   1043.0459              1044.2762              1051.6133
 Red. masses --      2.1304                 1.3418                 1.9623
 Frc consts  --      1.3656                 0.8621                 1.2786
 IR Inten    --      4.6161                 4.4755                62.4512

                     25                     26                     27
                      A                      A                      A
 Frequencies --   1067.7545              1087.1564              1116.6863
 Red. masses --      2.0681                 1.8471                 1.4232
 Frc consts  --      1.3892                 1.2863                 1.0456
 IR Inten    --     16.7634                57.3477                 5.0082

                     28                     29                     30
                      A                      A                      A
 Frequencies --   1170.2018              1175.2009              1184.4905
 Red. masses --      1.9897                 1.6687                 1.3797
 Frc consts  --      1.6053                 1.3579                 1.1405
 IR Inten    --     89.7470                12.6638                 3.1973

                     31                     32                     33
                      A                      A                      A
 Frequencies --   1200.3438              1241.1648              1278.6955
 Red. masses --      2.1782                 2.2133                 2.0393
 Frc consts  --      1.8491                 2.0089                 1.9646
 IR Inten    --      9.6974                82.4468                 3.3079

                     34                     35                     36
                      A                      A                      A
 Frequencies --   1319.9160              1353.5666              1410.2643
 Red. masses --      1.5560                 1.8038                 1.3089
 Frc consts  --      1.5972                 1.9471                 1.5338
 IR Inten    --     36.2355                 5.8345                 8.4498

                     37                     38                     39
                      A                      A                      A
 Frequencies --   1467.4807              1472.9210              1485.0819
 Red. masses --      1.3216                 1.2323                 1.0513
 Frc consts  --      1.6769                 1.5752                 1.3661
 IR Inten    --     16.2191                 0.7033                 4.0122

                     40                     41                     42
                      A                      A                      A
 Frequencies --   1500.9384              1511.4206              2982.0881
 Red. masses --      1.4196                 1.4497                 1.0370
 Frc consts  --      1.8843                 1.9512                 5.4334
 IR Inten    --     16.3173                 6.2357                64.2320

                     43                     44                     45
                      A                      A                      A
 Frequencies --   3034.3318              3058.1624              3118.1976
 Red. masses --      1.1018                 1.0861                 1.0534
 Frc consts  --      5.9768                 5.9847                 6.0345
 IR Inten    --     53.7545                32.5377                13.5032

                     46                     47                     48
                      A                      A                      A
 Frequencies --   3119.9440              3126.1995              3191.4558
 Red. masses --      1.0975                 1.0538                 1.0917
 Frc consts  --      6.2942                 6.0677                 6.5514
 IR Inten    --     27.4159                 4.8289                19.1046

                     49                     50                     51
                      A                      A                      A
 Frequencies --   3205.1070              3214.6093              3220.9938
 Red. masses --      1.1066                 1.1073                 1.1168
 Frc consts  --      6.6978                 6.7418                 6.8265
 IR Inten    --      1.1524                17.5542                 4.9231

 - Thermochemistry -
 -------------------
 Temperature   298.150 Kelvin.  Pressure   1.00000 Atm.
 Atom     1 has atomic number  6 and mass  12.00000

 Molecular mass:   126.06808 amu.
 Principal axes and moments of inertia in atomic units:
                           1         2         3
     Eigenvalues --   374.965691781.689661900.41915
           X            0.99999   0.00201  -0.00499
           Y           -0.00228   0.99849  -0.05486
           Z            0.00487   0.05487   0.99848
 This molecule is an asymmetric top.
 Rotational symmetry number  1.
 Rotational temperatures (Kelvin)      0.23099     0.04861     0.04558
 Rotational constants (GHZ):           4.81308     1.01294     0.94965
 Zero-point vibrational energy     412888.3 (Joules/Mol)
                                   98.68268 (Kcal/Mol)
 Warning -- explicit consideration of  10 degrees of freedom as
           vibrations may cause significant error
 Vibrational temperatures:    120.24   156.90   214.79   283.33   334.82
          (Kelvin)            457.52   481.65   627.15   693.67   818.27
                              937.15  1085.90  1153.71  1172.79  1253.59
                             1256.10  1359.32  1368.41  1402.11  1445.13
                             1471.81  1500.71  1502.48  1513.04  1536.26
                             1564.17  1606.66  1683.66  1690.85  1704.22
                             1727.02  1785.76  1839.76  1899.06  1947.48
                             2029.05  2111.37  2119.20  2136.70  2159.51
                             2174.59  4290.55  4365.72  4400.01  4486.39
                             4488.90  4497.90  4591.79  4611.43  4625.10
                             4634.29

 Zero-point correction=                           0.157261 (Hartree/Particle)
 Thermal correction to Energy=                    0.165787
 Thermal correction to Enthalpy=                  0.166731
 Thermal correction to Gibbs Free Energy=         0.123933
 Sum of electronic and zero-point Energies=           -422.940689
 Sum of electronic and thermal Energies=              -422.932163
 Sum of electronic and thermal Enthalpies=            -422.931219
 Sum of electronic and thermal Free Energies=         -422.974017

                     E (Thermal)             CV                S
                      KCal/Mol        Cal/Mol-Kelvin    Cal/Mol-Kelvin
 Total                  104.033             32.257             90.077
 Electronic               0.000              0.000              0.000
 Translational            0.889              2.981             40.409
 Rotational               0.889              2.981             28.631
 Vibrational            102.255             26.295             21.038
 Vibration     1          0.600              1.960              3.805
 Vibration     2          0.606              1.942              3.286
 Vibration     3          0.618              1.903              2.681
 Vibration     4          0.636              1.844              2.162
 Vibration     5          0.653              1.791              1.858
 Vibration     6          0.704              1.639              1.320
 Vibration     7          0.716              1.606              1.237
 Vibration     8          0.796              1.392              0.840
 Vibration     9          0.838              1.290              0.704
 Vibration    10          0.925              1.099              0.507

 Normal termination of Gaussian 09 at Tue Jan 28 14:04:00 2020.
